<?xml version="1.0"?>
 <VTKFile type="UnstructuredGrid" version="1.0" byte_order="LittleEndian">
  <UnstructuredGrid>
   <Piece NumberOfPoints="618" NumberOfCells="1901">
    <Points>
     <DataArray type="Float32" NumberOfComponents="3" format="ascii">
      2.0 0.1 -0.1
      2.0 0.1 0.1
      2.0 -0.1 -0.1
      2.0 -0.1 0.1
      0.0 0.1 -0.1
      0.0 0.1 0.1
      0.0 -0.1 -0.1
      0.0 -0.1 0.1
      0.0 -0.033333333333333395 0.1
      0.0 0.033333333333333215 0.1
      0.060606060606061794 0.1 0.1
      0.12121212121212344 0.1 0.1
      0.18181818181818551 0.1 0.1
      0.2424242424242475 0.1 0.1
      0.3030303030303096 0.1 0.1
      0.36363636363637164 0.1 0.1
      0.42424242424243364 0.1 0.1
      0.4848484848484957 0.1 0.1
      0.5454545454545576 0.1 0.1
      0.6060606060606197 0.1 0.1
      0.6666666666666817 0.1 0.1
      0.727272727272744 0.1 0.1
      0.7878787878788058 0.1 0.1
      0.8484848484848679 0.1 0.1
      0.9090909090909298 0.1 0.1
      0.9696969696969915 0.1 0.1
      1.03030303030305 0.1 0.1
      1.090909090909109 0.1 0.1
      1.1515151515151683 0.1 0.1
      1.212121212121227 0.1 0.1
      1.272727272727286 0.1 0.1
      1.3333333333333446 0.1 0.1
      1.3939393939394036 0.1 0.1
      1.4545454545454621 0.1 0.1
      1.515151515151521 0.1 0.1
      1.5757575757575797 0.1 0.1
      1.6363636363636385 0.1 0.1
      1.6969696969696975 0.1 0.1
      1.7575757575757562 0.1 0.1
      1.8181818181818148 0.1 0.1
      1.8787878787878742 0.1 0.1
      1.9393939393939348 0.1 0.1
      2.0 -0.033333333333333395 0.1
      2.0 0.033333333333333215 0.1
      0.060606060606061794 -0.1 0.1
      0.12121212121212344 -0.1 0.1
      0.18181818181818551 -0.1 0.1
      0.2424242424242475 -0.1 0.1
      0.3030303030303096 -0.1 0.1
      0.36363636363637164 -0.1 0.1
      0.42424242424243364 -0.1 0.1
      0.4848484848484957 -0.1 0.1
      0.5454545454545576 -0.1 0.1
      0.6060606060606197 -0.1 0.1
      0.6666666666666817 -0.1 0.1
      0.727272727272744 -0.1 0.1
      0.7878787878788058 -0.1 0.1
      0.8484848484848679 -0.1 0.1
      0.9090909090909298 -0.1 0.1
      0.9696969696969915 -0.1 0.1
      1.03030303030305 -0.1 0.1
      1.090909090909109 -0.1 0.1
      1.1515151515151683 -0.1 0.1
      1.212121212121227 -0.1 0.1
      1.272727272727286 -0.1 0.1
      1.3333333333333446 -0.1 0.1
      1.3939393939394036 -0.1 0.1
      1.4545454545454621 -0.1 0.1
      1.515151515151521 -0.1 0.1
      1.5757575757575797 -0.1 0.1
      1.6363636363636385 -0.1 0.1
      1.6969696969696975 -0.1 0.1
      1.7575757575757562 -0.1 0.1
      1.8181818181818148 -0.1 0.1
      1.8787878787878742 -0.1 0.1
      1.9393939393939348 -0.1 0.1
      0.0 -0.033333333333333395 -0.1
      0.0 0.033333333333333215 -0.1
      0.060606060606061794 0.1 -0.1
      0.12121212121212344 0.1 -0.1
      0.18181818181818551 0.1 -0.1
      0.2424242424242475 0.1 -0.1
      0.3030303030303096 0.1 -0.1
      0.36363636363637164 0.1 -0.1
      0.42424242424243364 0.1 -0.1
      0.4848484848484957 0.1 -0.1
      0.5454545454545576 0.1 -0.1
      0.6060606060606197 0.1 -0.1
      0.6666666666666817 0.1 -0.1
      0.727272727272744 0.1 -0.1
      0.7878787878788058 0.1 -0.1
      0.8484848484848679 0.1 -0.1
      0.9090909090909298 0.1 -0.1
      0.9696969696969915 0.1 -0.1
      1.03030303030305 0.1 -0.1
      1.090909090909109 0.1 -0.1
      1.1515151515151683 0.1 -0.1
      1.212121212121227 0.1 -0.1
      1.272727272727286 0.1 -0.1
      1.3333333333333446 0.1 -0.1
      1.3939393939394036 0.1 -0.1
      1.4545454545454621 0.1 -0.1
      1.515151515151521 0.1 -0.1
      1.5757575757575797 0.1 -0.1
      1.6363636363636385 0.1 -0.1
      1.6969696969696975 0.1 -0.1
      1.7575757575757562 0.1 -0.1
      1.8181818181818148 0.1 -0.1
      1.8787878787878742 0.1 -0.1
      1.9393939393939348 0.1 -0.1
      2.0 -0.033333333333333395 -0.1
      2.0 0.033333333333333215 -0.1
      0.060606060606061794 -0.1 -0.1
      0.12121212121212344 -0.1 -0.1
      0.18181818181818551 -0.1 -0.1
      0.2424242424242475 -0.1 -0.1
      0.3030303030303096 -0.1 -0.1
      0.36363636363637164 -0.1 -0.1
      0.42424242424243364 -0.1 -0.1
      0.4848484848484957 -0.1 -0.1
      0.5454545454545576 -0.1 -0.1
      0.6060606060606197 -0.1 -0.1
      0.6666666666666817 -0.1 -0.1
      0.727272727272744 -0.1 -0.1
      0.7878787878788058 -0.1 -0.1
      0.8484848484848679 -0.1 -0.1
      0.9090909090909298 -0.1 -0.1
      0.9696969696969915 -0.1 -0.1
      1.03030303030305 -0.1 -0.1
      1.090909090909109 -0.1 -0.1
      1.1515151515151683 -0.1 -0.1
      1.212121212121227 -0.1 -0.1
      1.272727272727286 -0.1 -0.1
      1.3333333333333446 -0.1 -0.1
      1.3939393939394036 -0.1 -0.1
      1.4545454545454621 -0.1 -0.1
      1.515151515151521 -0.1 -0.1
      1.5757575757575797 -0.1 -0.1
      1.6363636363636385 -0.1 -0.1
      1.6969696969696975 -0.1 -0.1
      1.7575757575757562 -0.1 -0.1
      1.8181818181818148 -0.1 -0.1
      1.8787878787878742 -0.1 -0.1
      1.9393939393939348 -0.1 -0.1
      2.0 0.1 -0.033333333333333395
      2.0 0.1 0.033333333333333215
      0.0 0.1 -0.033333333333333395
      0.0 0.1 0.033333333333333215
      2.0 -0.1 -0.033333333333333395
      2.0 -0.1 0.033333333333333215
      0.0 -0.1 -0.033333333333333395
      0.0 -0.1 0.033333333333333215
      0.056338230902877234 0.006190475549100155 0.1
      0.04183744644918726 0.057369915721002224 0.1
      0.09471349661760353 0.050406179915272104 0.1
      0.15612244770470893 0.04311743161152817 0.1
      0.2190242513950918 0.036066017783398796 0.1
      0.2820300274953417 0.03398404423788759 0.1
      0.344923405358932 0.03308196088478105 0.1
      0.40865008825424326 0.03168712157983081 0.1
      0.478011019432595 0.0272007373729225 0.1
      0.5271412037968305 0.05477335644781528 0.1
      0.5847923144428165 0.049592537614352505 0.1
      0.6471451290024386 0.04886677025440586 0.1
      0.7012858469071841 0.05902962364102968 0.1
      0.756759679289621 0.049550524815846514 0.1
      0.8206616291707811 0.04288864928369074 0.1
      0.8846985982084816 0.036114830979130735 0.1
      0.9477851567673847 0.03419240309478677 0.1
      1.0096026915571008 0.03361083712961255 0.1
      1.07102071690574 0.03347805683123245 0.1
      1.1321215742278299 0.03348964468384949 0.1
      1.1926523619680838 0.033428377439150975 0.1
      1.2535018816523684 0.03348373285335346 0.1
      1.3138995930811876 0.03343848867882582 0.1
      1.3743443808709448 0.03339666769495611 0.1
      1.4350757418016706 0.03342254751006493 0.1
      1.495793004618648 0.03345161100260888 0.1
      1.5564853752605718 0.03348094974671323 0.1
      1.6171349914106925 0.03351420491991011 0.1
      1.6777257569984 0.03357636678906975 0.1
      1.7382530600557158 0.03375293609055846 0.1
      1.7987558539918982 0.03430504718212349 0.1
      1.859223967570493 0.035703946540771775 0.1
      1.9208975614185275 0.038784168653492934 0.1
      1.950955072091181 -0.015476994583850157 0.1
      1.8970921603597006 -0.027711542370719114 0.1
      0.08285541618669406 -0.04844504075037125 0.1
      0.1914986918605391 -0.027593727706995252 0.1
      0.3235702945558011 -0.03296958225529806 0.1
      0.44982024700946577 -0.03594992801936453 0.1
      0.5784743315532043 -0.04933036941109374 0.1
      0.6883108050404076 -0.04873052014956817 0.1
      0.807647319836432 -0.054786570297369525 0.1
      0.9256678917154021 -0.03153381831588442 0.1
      1.050740105508435 -0.03302030167689568 0.1
      1.1726396614151826 -0.03317845676109525 0.1
      1.2939550428815758 -0.033194488475364714 0.1
      1.4150555827205196 -0.033195330523336564 0.1
      1.536516114028375 -0.0331208753610982 0.1
      1.6577865449077314 -0.03306453953671125 0.1
      1.7785796498051116 -0.03266693427596898 0.1
      1.8385173352919701 -0.03152831362336975 0.1
      0.5142605806049763 -0.04264954632173567 0.1
      0.3861918058381317 -0.033925021802595504 0.1
      0.14121188701176346 -0.05479622688628999 0.1
      0.25970285249424085 -0.03171065917300045 0.1
      0.6335201253770749 -0.05891149590647631 0.1
      0.7505652582922553 -0.04936362173284485 0.1
      0.8570826915854922 -0.027240171907933083 0.1
      0.9888515807239635 -0.032719011318891905 0.1
      1.1120872634157457 -0.03306721214775979 0.1
      1.2335811901517593 -0.03311527271701992 0.1
      1.3543231836333027 -0.033242860780097944 0.1
      1.4757955900785122 -0.03315460282926547 0.1
      1.5971883819978423 -0.03309600404926244 0.1
      1.7182821005350495 -0.03297025198028722 0.1
      0.7087458546024148 0.005086544852947669 0.1
      0.5513925058449793 0.003490121512540148 0.1
      0.12105859099640882 -0.0032368175396957355 0.1
      0.6276116131827506 -0.004881471245282168 0.1
      0.7846020004951474 -0.003287311477644106 0.1
      0.05251833312559342 0.0002225614889277694 -0.1
      0.06983254708679362 0.05102504096470953 -0.1
      0.14594392731457928 0.05025971470743243 -0.1
      0.27186133829498915 0.04998338589987475 -0.1
      0.39378982681302566 0.04997161500114897 -0.1
      0.515130819763843 0.049954916600150445 -0.1
      0.6363585409265787 0.04997309010723344 -0.1
      0.757574313483771 0.049964510837968684 -0.1
      0.878787700640421 0.04996571200770353 -0.1
      1.0000019161507456 0.04996752368266458 -0.1
      1.1212140354027544 0.04997991389784473 -0.1
      1.2424266071033787 0.04998646370943932 -0.1
      1.3636389203926338 0.04998774513235968 -0.1
      1.484854356773734 0.04998791426359403 -0.1
      1.60611560437676 0.04998673441189366 -0.1
      1.7276487979611477 0.049968188798311414 -0.1
      1.8506095318406803 0.04987489352876476 -0.1
      1.9432666202406619 1.3452380568657052e-6 -0.1
      1.914997487359947 -0.04947420989744071 -0.1
      0.08327855286570743 -0.04907170759653927 -0.1
      0.14789805281983442 -0.049369426844655076 -0.1
      0.21038413858302116 -0.04971242598323158 -0.1
      0.27191601983314656 -0.04988783145498988 -0.1
[...]
    <CellData>
     <DataArray type="Float32" Name="vector" format="ascii">
0.0457808739621202 0.0004380805163005531 -0.00031056609025240854
0.031076912583316827 0.0007225406152927574 0.0014318560990392243
0.02478802804503059 -0.0057529008803426105 -9.897658207107542e-5
0.053009584387535794 -0.0010890358096445787 0.00030733774466063575
0.02767352123373597 0.002906792830417449 0.00013154963325132755
0.03802779438813374 -0.0004113202154483381 -0.00020213016827763859
0.038965482874930936 0.00014723678368267742 3.268442463623113e-5
0.038201721846013434 1.5703089186840766e-5 -0.0005424060707443358
0.0289977440277973 -0.002733784124659477 -3.782721364028051e-5
0.03618340497538277 -0.00037038322571228844 0.0001920690987406759
0.04710560943392645 4.009706488126951e-5 6.542550407776766e-5
0.024593874199754184 4.800954974022251e-5 0.009527476931127165
0.03897849380575062 0.00020470182026842464 -5.585123858148488e-5
0.02949608294814157 0.004406282805349787 3.0108703810447822e-5
0.0415570457897438 0.0002598497405765237 -0.00010475449786943369
0.05477592925910497 7.927302245398679e-6 0.00026639027428754014
0.0464391335551789 4.894217229776562e-5 -4.6236325079732057e-5
0.04328927625472015 -0.0005785133882669788 -0.0009611007308462765
0.04955831099425696 -0.0003424504898259312 4.82671618695501e-5
0.04582053095340143 0.000626220057346864 0.0003146934042406664
0.039615338660105394 -0.00024501034117113387 -0.0001703531426443223
-0.020003167976947903 -0.00371048324430058 -0.0014604772350146906
0.03845929235090781 -0.0001118408590109647 -0.0005351493615977011
0.031734615961927136 0.0013682301559684465 -0.0002057927601583727
0.03802741123209001 -9.883924968643703e-5 -0.00025143478662174775
0.04244954455835493 0.0001142251269197557 -8.300522853543372e-5
0.025297759024803815 0.0038700413881755636 0.0002522383479739568
0.03265499906962984 -7.286822441023759e-5 -3.761733556064225e-5
0.039665390736005765 -8.927696288372232e-5 0.0006586600900708238
0.026760735334591362 -0.006562655394021354 4.668639287404555e-5
0.02909430716741666 0.0087686557919096 -0.0002475465699158119
0.0463562488131643 -0.00016085797155323482 0.0004607195587809521
0.038513017994604284 0.0025288556122454336 4.999282658817165e-5
0.022095933616232823 5.981226075092785e-5 0.0007796187940865446
0.033152780037794705 4.1361747300375606e-5 0.0002458736824725413
0.04448291329244732 -0.0001804280105800235 -0.00030188927498257703
0.046981087615316594 -2.3858146401727632e-5 -6.920799746218688e-5
0.046296825806763996 -1.2025772904679143e-5 -0.0001203316695380018
0.04256849787087941 0.000162035702333409 -0.0001270307235027562
0.03990307888249244 1.8673779232628996e-5 -0.00011838517735375618
0.028546899993378564 -0.0006550177319849832 7.848785814171876e-5
0.04841334663091389 0.001068309054827352 0.0003260101045075458
0.032054153189172964 -1.566442873538882e-6 0.0030981270358278806
0.026886964949938426 0.0035286496510003595 -1.2105451618260233e-5
0.03139661269356373 -0.002280000961611558 -0.00028832012537510294
0.0413025404099008 -7.380746821673953e-5 0.00016066504395184043
0.04568490373344981 3.217154132399061e-5 -0.00038135334068365795
0.03870576045213585 -0.000371135789445124 0.0002876124080215352
0.02676039527669645 0.005444073929339139 -8.514805096612958e-5
0.02576669811744594 -9.239484549981054e-5 -0.007638053035923914
0.02254512628845603 -0.0007558635874542429 0.0002332585543447678
0.04443421807643139 0.00010292309859410328 -0.00012129596543547815
0.03907886400976117 -0.0016906564376487 -0.0005565234862433039
0.03991767909265373 -2.9372892564492845e-5 -0.00010051312420926447
0.04333192924051827 0.0009425939394530292 0.0004015433566343668
0.03056565896412642 0.0001175947183146596 -0.004780177247192129
0.018103679534639275 0.003398533280631529 -0.0033815805070829923
0.025109141737973736 0.0001802633811460786 -0.0025848303049525205
0.02642178981595864 0.0017220362766169279 -3.935910275958569e-5
0.04618478445183475 2.8733053361865214e-5 -0.0001011640394001822
0.03981945263403863 0.00015482324001571027 -0.0006276596468126348
-0.017571185599660668 -0.0026409956099776597 0.00029953322909292903
0.027550142695711273 0.007735372802500471 -4.458491913552176e-5
0.01679719974795765 4.3378456199751244e-5 -1.973668350101798e-5
0.0274520758683402 0.001018174991984915 -7.668108862664973e-5
0.024039222829936226 -0.008442764086280113 0.0095710201014148
0.039922493434746256 0.00015464425759019045 0.0001000711009569281
0.03913112725192367 -0.0002459547165477903 -0.00043673188363359104
0.027820492743218905 0.00034591593498820754 -0.006410283245426556
0.030350296178426904 0.00519367003655676 -0.00035569952662521453
0.02664448796049627 0.005927035024795069 9.578377284404751e-5
0.026693088575737597 6.735164932670663e-5 0.007793293033031028
0.028147747748242778 2.979168590092843e-5 0.004501721978134127
0.02799982322939775 0.0033818231202402127 4.731271586768117e-5
0.04529555553336958 -0.0001117011706277989 -0.0002515482361274443
0.02789221309358889 0.006639431483193321 -1.408251045019001e-5
0.020968718674376843 0.0014220840343365973 -0.003787315263279513
0.037135448800547685 -5.3307399228900355e-5 1.3824739301004937e-6
-0.011429957116890294 -0.01273121626181136 -0.019460947452710174
0.035801756636963916 -0.0003142103328039327 -0.002013569708457179
0.038779515392745566 0.001712371429458577 -0.0005624875502836589
0.033857694976051074 -3.661210707215005e-5 6.915267864666228e-6
0.044081910443994475 -3.627295261593942e-5 -0.00011110090287087827
0.032345496450468934 0.0007902265112932107 0.010258207217633293
0.04542860049751483 -0.00011255943572849577 -7.843642683958914e-5
0.029771865193627373 -0.0016843050758389478 8.48313982919437e-5
0.03910092347354967 5.006641714669585e-5 0.0002641920145706561
0.03202146761300765 0.0006130232978744325 -3.0711771787766994e-5
0.036422434985484274 7.36664436314128e-5 0.00018436621784556002
0.028607129225235367 0.0024180879738873277 0.00010688031258232089
0.03795330417994136 -9.844935229927587e-5 -0.0005444134207115471
0.03114829463327089 2.492567175236421e-5 0.0047273141082299405
0.04278755724129723 -3.731111583625591e-5 -1.4398736922269619e-5
0.04130166709601319 -4.949197265091951e-5 2.401799119768125e-5
0.0381326929882905 -7.229398256521786e-5 4.291963097931113e-5
0.040271065129654934 -8.922528650612723e-5 -1.73805052352682e-5
0.017786244150862152 -0.005752757481900145 -0.0003333029052468352
0.03812800813416579 0.0003525709615621284 -2.9529044525626372e-5
0.03991430252247415 -0.00011164573033104033 -0.0005444014120398399
0.04287690101524652 -9.354970636659246e-5 -2.3456956533208994e-5
0.025041622827739776 -0.00015178636716100464 0.005521235260575557
0.03993140899057133 0.0001845522844018805 1.876627025694656e-5
0.037011193797760925 -4.687080164364274e-5 -0.00014865112179449414
0.03389334988739395 2.6244298590454487e-5 -5.300925894320937e-5
0.03047255983606583 -0.006084197716383287 -0.0004329333509584863
0.0369857067380474 -8.691549794932476e-5 -1.719344055205831e-5
0.038127957209890234 -0.00036838067881426155 -0.0006384944510377634
0.03996490932797298 0.0006318429685997508 0.00010203545790913682
0.04407343721359165 -0.0003329106975532563 -0.001058620037714433
0.03554069188901998 0.00030518271282206036 -3.8564084390111434e-5
0.025618837584800977 -0.002460375394461153 1.4751933534853036e-5
0.04075690961776639 0.0002861264360837574 -0.0003153864788559229
0.042888303507259806 -7.692284439240267e-5 -0.0003101640379667088
0.04572918251576476 8.71332371565097e-5 -0.0009143521143776224
0.04738035141328374 7.899637029993653e-5 -0.0003952713375820636
0.039724050325782245 2.322504003357001e-5 -0.0011544043635125397
0.02830593307117938 0.012622052656594667 6.374658380162755e-6
-0.014295745751956489 -2.9524517857869577e-5 -0.0002843561097772258
0.0470478172124357 0.0002971238518062683 0.00017106488149827925
0.028342396016991497 0.013983151226049803 -0.0007631200534707831
0.040443856404910355 0.0017079800885657877 -0.00036982601777844475
0.04056695795124174 0.0002165151849782438 -0.0001617513472240419
0.03936522963003352 2.9448000031788313e-5 0.0002602363259989482
0.025922330931666102 -0.005790060042443298 2.090071188744222e-5
0.04699552990292968 -0.0002873501460815883 -0.00017219569607425573
0.03145951596610316 0.0014216176908400343 0.0001456492433693817
0.04001924300457429 0.0004336394275967625 -0.00018510244289030468
0.047462123102450446 0.0010994648649949798 0.0006007286782055498
0.02927275419889104 0.00039165744598306976 -0.002406080463388819
0.03374764994822138 0.0010214688437551586 -0.007784699038971939
0.041680487748730385 0.00045082097349180973 -2.185565041236766e-5
0.042313324916920206 0.0009282199643684526 0.00010713202244621544
-0.009072236349663296 -0.0011148428787591145 0.0005350168812159453
0.03501036172122037 -6.264377255555638e-5 -0.0003308660959184136
0.03698562301537784 2.4981016155292653e-5 -3.1980740347707526e-5
0.03908693477119497 0.0005284133672728219 -0.000397639363083409
0.030093750474882414 2.66929007886275e-5 0.00454807998275072
0.040549930958791724 0.0003134827932636545 6.588171030441815e-5
0.04602020872507193 0.0003437075855797703 2.7408209490022266e-5
0.03100230900596534 0.00029280490734728533 -0.004237030200914035
0.023697890061802195 1.029402315760149e-5 0.001573037756528511
0.03869216964382817 -4.1166142906171595e-5 -6.881300847858885e-6
0.04591802191572657 0.00045512618624272093 -0.0007601458383055164
0.04538318467658163 0.0002550759867865523 0.00038444433929573984
0.03947536493348328 0.00022251692914545507 0.0005264034369824372
0.03754895023767809 7.791900115133921e-5 3.8018537365452985e-5
0.03787547859509609 -0.0002155389691461414 8.275550328449848e-5
0.04675989513926995 0.00015420912294742897 -1.9154030177613158e-5
0.046236856582955996 0.00016656193486810968 -4.5937076535023494e-5
0.038238981372280316 0.0002582010062051404 0.00012709636337708007
0.02621368634004286 0.005957616058749846 -7.728455565309824e-5
0.03827942207566128 -0.0002554150201996802 0.0005446223025530058
0.019525500556185117 0.01574497650413952 -0.006599534823278253
0.018092575775700434 -0.0027820726643822138 -0.009504256242991851
0.017622346322208486 -0.0024989744485812344 0.004191937155727905
0.02591277369367409 -1.6298953393253083e-5 0.014311151256628045
0.028210269544871245 0.0003742175200254362 0.002918567893863263
0.02561533056411759 -0.00011127325630687288 -0.0009342538825872096
0.031866513631489304 0.0031462259681586243 -0.0002785635920040667
0.030139254191797825 0.01169461408408003 -0.0003635190392544124
0.03089023832391642 2.81293676596929e-5 -0.0007503317243599748
0.041164438703347885 0.0003068025222744605 -0.0001717402038414814
0.03003337062432243 -0.00047160726715999375 0.016773673418474324
0.0293260920731693 0.00696729747380222 -0.000424403505401232
0.020277470609024083 -0.004720770558842226 -0.004467154001085935
0.025838938681337686 0.0037622597782321823 0.00013535719875728972
0.040076863850083064 -0.0001324344831433243 -5.1517623658379505e-5
0.022047035930583474 0.023162543815393455 -0.01510616276896843
0.02172979043752722 0.009527950425011273 -0.027129861144517917
0.019340486983632183 0.0037881917795773213 -0.0049449475049747485
0.04060616278462804 8.458543325474766e-5 -4.246262878873337e-5
0.0403389634678403 0.00018180679509513585 -2.552595342733008e-5
0.028213109114741394 -0.006628687546277932 0.00033788699941904126
0.042914364503685534 7.383160135976932e-5 -3.7281514655609326e-5
0.04719878854767897 0.00045809851650317155 0.00012593001336850206
0.03756530496622141 -0.0002701962193536464 -0.0013575052623337064
0.029655899192377943 0.0032770518388804066 -0.00014029840389829783
0.018471898637927947 -0.03406088306858615 0.00032219905171675724
0.04644670709446875 9.002096743133661e-5 -2.858110328313478e-5
0.04169635229661832 -2.3482287326667257e-5 7.820639894178057e-5
0.04134414856604026 0.00012179516586920975 8.781215834110757e-5
0.036859725407616103 -0.0001910374026527339 0.00010091740152404362
0.031341092819413066 -0.002989519267278429 0.0001583809853553843
0.0458200726316358 0.0006849041802529639 -0.0002308740570271123
0.03306207220173349 6.501651721239599e-5 -0.00013150165767612793
0.04002761574952141 -6.364072045536422e-6 -0.0003252403640821197
0.036451890109041075 0.00021577967584249252 -0.00013883413032038852
0.03909322322560116 -6.638987840225571e-5 -2.189941263405694e-5
0.03147829347469884 0.00029934011274688945 0.000123058107301727
0.04355005458937824 0.00021098108853173804 -0.00021281521326653303
0.0459206905775958 0.0002570437998471099 -0.00025981310242493595
0.02758064921892162 0.00017209920127665704 0.0012122028801033477
0.043375805184811246 -0.00021421071300620093 0.00010042690254060888
0.03320646400869254 -4.2727412046643455e-5 0.0023429790799400266
0.033890698863140035 -9.454157633878941e-5 -0.0001335651084296578
0.036070401279372326 0.0007656696745562982 -0.0003832881493917833
0.046335118945384404 -8.283901578450911e-5 -0.00024581233861900717
0.024847044465084362 0.00011611662864920121 -0.009984276514226849
0.02639190173817761 -0.024502585041383793 -0.00022642846813451047
0.0304219028047709 -4.488989733233979e-5 0.006444147013432633
0.044417747688017824 -0.0006237491059743191 -0.0010692423700134192
0.04094889827005554 -0.00017662172127751456 5.46688625281974e-5
0.03795268842336979 -0.0001058951694307708 -1.1690435408292901e-5
0.03659030572917952 -0.00036917403389990816 -0.0005929613505704417
0.0357665845747357 1.9883278636391564e-5 3.418938962380976e-5
0.028317573197242447 -0.007613687840420552 -8.2151687209883e-5
0.0393041698815219 -9.652468808832272e-5 -8.179881537616725e-5
0.03761061685513538 0.0013383875806121386 -0.0005371055690408634
0.0378365775436427 -0.0001540732437781213 -0.0003716255415874808
0.04382079362846037 4.257337617851615e-5 -0.0001251076271329007
0.038457840179832135 -0.0022267401042698753 -0.0003589492147225794
0.028959720621305873 -0.0011126014781797915 -0.0004787231564468003
0.026262237459727396 -0.0042036164424448215 9.031353665362912e-5
0.03931162669543114 0.00011753978651364924 0.0002211184059530942
0.02995086680444975 0.002299528926718391 -0.000111136440009862
0.029508399857535016 -0.0022371223049628417 -0.035075576820346364
0.032261023314750774 -0.00018248311104323265 3.1153397206598496e-5
0.02919814441600499 -0.0011965855967061253 0.00012977860645150427
0.026018485593251338 0.03488711622128528 0.0007076436680203881
0.030495744737534965 0.0006974174326198697 4.1078506509198044e-5
0.04813775566678176 6.967725600396225e-5 -0.0003001526145596378
0.031293589218115855 0.021345619982666767 -0.0010748464665825553
0.026782615579827893 -0.00018637341598640075 -0.015235013100366623
0.03880427751230689 0.0006382486549939196 0.0047238560048050195
0.025223085506708046 -0.007385936459876529 -5.809419620612367e-5
0.01734682458046308 -0.0013036423605048719 -0.0015820113411099462
0.03836186985250345 -3.132331631558501e-5 0.0002068177335785438
0.040762802406810426 9.211380859641933e-5 -0.00010053747571396779
0.04779050716913983 0.00021754348317654318 -0.0008854868994537808
0.047339193159059406 0.00037246243709745274 -4.091829879013855e-5
0.030885232371995502 -0.002124823450484166 -0.00047479377713811237
0.03213234796086381 -8.899244969006828e-5 0.006425656807112214
0.028278637383950537 -0.0013025937167277055 -0.00013759176551924481
0.028696958436287657 0.0005868730744423275 0.01063045353914324
0.03934924642210786 -3.539145793866725e-5 -7.992171471073547e-5
0.04341913426801685 -4.103718543163662e-5 -0.00025152198547796436
0.04614238371398381 0.0005404013243327077 -0.0002785480469776185
0.04670995627260942 -0.00010132001023745102 -0.00023853101324018274
0.04058352335635439 -9.284257367555171e-5 0.0003948997013640369
0.03238611073207452 -0.00014708140423312375 -1.0956157949390288e-6
0.033636403259922745 -0.0001406092113918287 -0.000124823944315423
0.022112739204472313 0.0014564268004396556 0.0050134540296850015
0.04003780125890901 0.0005831884023086358 -0.001978440135690038
0.032128755369851665 -0.0014232753712610797 -0.00025285428242483883
0.03915247182881549 0.004575153897602811 0.00018210491022961669
0.03636913710216078 -5.629002454657278e-5 -0.000627182742827135
0.03271259749570682 -0.00022540414034069955 0.023564278652583467
0.04361595316867883 0.0003004092773467291 -0.00010255681515373015
0.031181682326358436 -0.0006395122606734369 -0.00019086945607987878
0.0386800322970656 0.0001812821567662223 -0.00037155715297371535
0.02978848733067355 -0.007419073838395753 -0.00038737062181088815
0.0411365279302037 -4.7584516526578395e-6 0.00019342065814173631
0.04041091708624694 -5.7564269461942166e-5 -0.0003474909686972325
0.042890217751315476 0.00010751347269775995 -0.0003691009037181077
0.047301011786734536 0.00014262560582459273 -0.00017311177537635702
0.04390924768781458 0.0001971529734526493 -0.0001501352817884943
0.03887983945610454 -2.66592580595114e-5 3.738775277775712e-5
0.040523299923698484 -0.00013757271698690401 -0.00017036287088302506
0.042935734352386776 -6.451900444206294e-5 1.378483528449836e-5
0.02600404456783149 -3.694899469261316e-5 -0.01154480753962049
0.027415733722107007 7.929125144179448e-6 0.004108981109816682
0.02617817978662846 0.003041813869706348 -0.00033583098437559505
0.03171363290758979 0.0010743865418848682 -0.00022138682705057834
0.03350379759735673 0.00010636688394909238 0.0005816741373495521
0.0461673001454957 0.0002894303082614692 -8.189995905061034e-5
0.04045614133897953 -0.00021759727342054533 -0.0006258077192913265
0.03204541360251307 0.012489088538572628 1.5091606160241108e-5
0.03343740062842891 4.356241161149103e-5 8.868803741993822e-6
0.037168980461509044 4.5219507319603436e-5 0.0001074135105890406
0.02081237378520913 -0.00016548191251019998 -8.18358534557416e-5
0.029299511639350163 0.006085155048799408 -3.4224031241388524e-6
0.03601183328768696 -1.5796679754748792e-5 0.0002173592854151791
0.033455581141543955 -1.2177282514162907e-5 -5.1241929067919466e-5
0.01841952357254245 -0.008428562052087741 0.00021398236777037875
0.03193787640617881 -0.0006377501648494366 -0.0001995290852593818
0.03826053937423172 -0.00045197767015433903 -0.00027889643059115696
0.0331034391015409 -0.0005373008765088539 0.001136723584984799
0.028687435060928662 0.0034948922190532255 0.00015793825221742445
0.029926796980658994 0.008802243027362436 0.00019054071524499043
0.03925174439156319 -6.590525308767317e-5 0.0005456889714740382
0.03726854800821102 0.000142409429871204 0.000258279018405335
0.038839988484645725 -0.00010284760617609655 -0.0005544154925199039
0.03898128271517149 0.00017193121331565757 7.78331378243988e-5
0.027439510639185576 -0.005077776285901742 0.00023834750487087595
0.03327958704409034 -9.997136403383224e-5 0.00011493726060544811
0.03936295802644065 0.00016244393421582256 -2.92320838827519e-5
0.031561868279017226 0.0001447789096540971 -0.008588153349193488
0.030830214362978916 0.0032892387726033458 9.517371560171881e-5
0.024567733399995528 0.00014776432294012578 -0.0008926243975079202
0.050595408479547584 0.0010464670378334164 0.00048266640980848465
0.04650606514285937 0.00016992601722034284 -0.0003636207628967018
0.04187851644823478 -0.0001586570282937199 -0.0001688173207803364
0.045125178326040224 0.0002252791121035398 0.00028637043012634853
0.0408094878719294 0.00012465085243011862 -0.001001847952405715
0.03835852087140139 3.3103215145298974e-5 -0.00020332271659170804
0.021423394857183725 0.0064694209838861965 -0.026894577153117098
0.04373876734816417 -0.00010522171780831298 -0.0007902414465513676
0.04108586162049565 5.7708434956751975e-5 -0.0003509541580933948
0.035378661514907636 1.2554405081513286e-6 9.331188014967293e-6
0.025651594731297966 -0.0023272820046941027 -0.00017214071150230004
0.04117052073084561 -6.178716804477278e-5 -1.0843330855758834e-5
0.041430378545802414 0.000406616763122758 -0.00025350359468994266
0.025812571871028773 -0.00568594410240608 -3.800431057687218e-5
0.0188942298760035 0.009474701768460611 -0.007064669043916985
0.045386095100650635 -6.6200964766033e-5 6.22749744870243e-6
0.029814908106766024 0.00020707071387482816 0.0024861268207562875