# vtk DataFile Version 3.0
jCFD simulation data
ASCII
DATASET UNSTRUCTURED_GRID
POINTS 1071 double
0.0 0.0 0.0
0.5 0.0 0.0
0.0 0.1 0.0
0.5 0.1 0.0
0.01 0.0 0.0
0.02 0.0 0.0
0.03 0.0 0.0
0.04 0.0 0.0
0.05 0.0 0.0
0.06 0.0 0.0
0.07 0.0 0.0
0.08 0.0 0.0
0.09 0.0 0.0
0.1 0.0 0.0
0.11 0.0 0.0
0.12 0.0 0.0
0.13 0.0 0.0
0.14 0.0 0.0
0.15 0.0 0.0
0.16 0.0 0.0
0.17 0.0 0.0
0.18 0.0 0.0
0.19 0.0 0.0
0.2 0.0 0.0
0.21 0.0 0.0
0.22 0.0 0.0
0.23 0.0 0.0
0.24 0.0 0.0
0.25 0.0 0.0
0.26 0.0 0.0
0.27 0.0 0.0
0.28 0.0 0.0
0.29 0.0 0.0
0.3 0.0 0.0
0.31 0.0 0.0
0.32 0.0 0.0
0.33 0.0 0.0
0.34 0.0 0.0
0.35000000000000003 0.0 0.0
0.36 0.0 0.0
0.37 0.0 0.0
0.38 0.0 0.0
0.39 0.0 0.0
0.4 0.0 0.0
0.41000000000000003 0.0 0.0
0.42 0.0 0.0
0.43 0.0 0.0
0.44 0.0 0.0
0.45 0.0 0.0
0.46 0.0 0.0
0.47000000000000003 0.0 0.0
0.48 0.0 0.0
0.49 0.0 0.0
0.01 0.1 0.0
0.02 0.1 0.0
0.03 0.1 0.0
0.04 0.1 0.0
0.05 0.1 0.0
0.06 0.1 0.0
0.07 0.1 0.0
0.08 0.1 0.0
0.09 0.1 0.0
0.1 0.1 0.0
0.11 0.1 0.0
0.12 0.1 0.0
0.13 0.1 0.0
0.14 0.1 0.0
0.15 0.1 0.0
0.16 0.1 0.0
0.17 0.1 0.0
0.18 0.1 0.0
0.19 0.1 0.0
0.2 0.1 0.0
0.21 0.1 0.0
0.22 0.1 0.0
0.23 0.1 0.0
0.24 0.1 0.0
0.25 0.1 0.0
0.26 0.1 0.0
0.27 0.1 0.0
0.28 0.1 0.0
0.29 0.1 0.0
0.3 0.1 0.0
0.31 0.1 0.0
0.32 0.1 0.0
0.33 0.1 0.0
0.34 0.1 0.0
0.35000000000000003 0.1 0.0
0.36 0.1 0.0
0.37 0.1 0.0
0.38 0.1 0.0
0.39 0.1 0.0
0.4 0.1 0.0
0.41000000000000003 0.1 0.0
0.42 0.1 0.0
0.43 0.1 0.0
0.44 0.1 0.0
0.45 0.1 0.0
0.46 0.1 0.0
0.47000000000000003 0.1 0.0
0.48 0.1 0.0
0.49 0.1 0.0
0.0 0.005 0.0
0.0 0.01 0.0
0.0 0.015 0.0
0.0 0.02 0.0
0.0 0.025 0.0
0.0 0.03 0.0
0.0 0.035 0.0
0.0 0.04 0.0
0.0 0.045 0.0
0.0 0.05 0.0
0.0 0.055 0.0
0.0 0.06 0.0
0.0 0.065 0.0
0.0 0.07 0.0
0.0 0.075 0.0
0.0 0.08 0.0
0.0 0.085 0.0
0.0 0.09 0.0
0.0 0.095 0.0
0.5 0.005 0.0
0.5 0.01 0.0
0.5 0.015 0.0
0.5 0.02 0.0
0.5 0.025 0.0
0.5 0.03 0.0
0.5 0.035 0.0
0.5 0.04 0.0
0.5 0.045 0.0
0.5 0.05 0.0
0.5 0.055 0.0
0.5 0.06 0.0
0.5 0.065 0.0
0.5 0.07 0.0
0.5 0.075 0.0
0.5 0.08 0.0
0.5 0.085 0.0
0.5 0.09 0.0
0.5 0.095 0.0
0.01 0.005 0.0
0.02 0.005 0.0
0.03 0.005 0.0
0.04 0.005 0.0
0.05 0.005 0.0
0.06 0.005 0.0
0.07 0.005 0.0
0.08 0.005 0.0
0.09 0.005 0.0
0.1 0.005 0.0
0.11 0.005 0.0
0.12 0.005 0.0
0.13 0.005 0.0
0.14 0.005 0.0
0.15 0.005 0.0
0.16 0.005 0.0
0.17 0.005 0.0
0.18 0.005 0.0
0.19 0.005 0.0
0.2 0.005 0.0
0.21 0.005 0.0
0.22 0.005 0.0
0.23 0.005 0.0
0.24 0.005 0.0
0.25 0.005 0.0
0.26 0.005 0.0
0.27 0.005 0.0
0.28 0.005 0.0
0.29 0.005 0.0
0.3 0.005 0.0
0.31 0.005 0.0
0.32 0.005 0.0
0.33 0.005 0.0
0.34 0.005 0.0
0.35000000000000003 0.005 0.0
0.36 0.005 0.0
0.37 0.005 0.0
0.38 0.005 0.0
0.39 0.005 0.0
0.4 0.005 0.0
0.41000000000000003 0.005 0.0
0.42 0.005 0.0
0.43 0.005 0.0
0.44 0.005 0.0
0.45 0.005 0.0
0.46 0.005 0.0
0.47000000000000003 0.005 0.0
0.48 0.005 0.0
0.49 0.005 0.0
0.01 0.01 0.0
0.02 0.01 0.0
0.03 0.01 0.0
0.04 0.01 0.0
0.05 0.01 0.0
0.06 0.01 0.0
0.07 0.01 0.0
0.08 0.01 0.0
0.09 0.01 0.0
0.1 0.01 0.0
0.11 0.01 0.0
0.12 0.01 0.0
0.13 0.01 0.0
0.14 0.01 0.0
0.15 0.01 0.0
0.16 0.01 0.0
0.17 0.01 0.0
0.18 0.01 0.0
0.19 0.01 0.0
0.2 0.01 0.0
0.21 0.01 0.0
0.22 0.01 0.0
0.23 0.01 0.0
0.24 0.01 0.0
0.25 0.01 0.0
0.26 0.01 0.0
0.27 0.01 0.0
0.28 0.01 0.0
0.29 0.01 0.0
0.3 0.01 0.0
0.31 0.01 0.0
0.32 0.01 0.0
0.33 0.01 0.0
0.34 0.01 0.0
0.35000000000000003 0.01 0.0
0.36 0.01 0.0
0.37 0.01 0.0
0.38 0.01 0.0
0.39 0.01 0.0
0.4 0.01 0.0
0.41000000000000003 0.01 0.0
0.42 0.01 0.0
0.43 0.01 0.0
0.44 0.01 0.0
0.45 0.01 0.0
0.46 0.01 0.0
0.47000000000000003 0.01 0.0
0.48 0.01 0.0
0.49 0.01 0.0
0.01 0.015 0.0
0.02 0.015 0.0
0.03 0.015 0.0
0.04 0.015 0.0
0.05 0.015 0.0
0.06 0.015 0.0
0.07 0.015 0.0
0.08 0.015 0.0
0.09 0.015 0.0
0.1 0.015 0.0
0.11 0.015 0.0
0.12 0.015 0.0
0.13 0.015 0.0
0.14 0.015 0.0
0.15 0.015 0.0
0.16 0.015 0.0
0.17 0.015 0.0
0.18 0.015 0.0
0.19 0.015 0.0
0.2 0.015 0.0
0.21 0.015 0.0
0.22 0.015 0.0
0.23 0.015 0.0
0.24 0.015 0.0
0.25 0.015 0.0
0.26 0.015 0.0
0.27 0.015 0.0
0.28 0.015 0.0
0.29 0.015 0.0
0.3 0.015 0.0
0.31 0.015 0.0
0.32 0.015 0.0
0.33 0.015 0.0
0.34 0.015 0.0
0.35000000000000003 0.015 0.0
0.36 0.015 0.0
0.37 0.015 0.0
0.38 0.015 0.0
0.39 0.015 0.0
0.4 0.015 0.0
0.41000000000000003 0.015 0.0
0.42 0.015 0.0
0.43 0.015 0.0
0.44 0.015 0.0
0.45 0.015 0.0
0.46 0.015 0.0
0.47000000000000003 0.015 0.0
0.48 0.015 0.0
0.49 0.015 0.0
0.01 0.02 0.0
0.02 0.02 0.0
0.03 0.02 0.0
0.04 0.02 0.0
0.05 0.02 0.0
0.06 0.02 0.0
0.07 0.02 0.0
0.08 0.02 0.0
0.09 0.02 0.0
0.1 0.02 0.0
0.11 0.02 0.0
0.12 0.02 0.0
0.13 0.02 0.0
0.14 0.02 0.0
0.15 0.02 0.0
0.16 0.02 0.0
0.17 0.02 0.0
0.18 0.02 0.0
0.19 0.02 0.0
0.2 0.02 0.0
0.21 0.02 0.0
0.22 0.02 0.0
0.23 0.02 0.0
0.24 0.02 0.0
0.25 0.02 0.0
0.26 0.02 0.0
0.27 0.02 0.0
0.28 0.02 0.0
0.29 0.02 0.0
0.3 0.02 0.0
0.31 0.02 0.0
0.32 0.02 0.0
0.33 0.02 0.0
0.34 0.02 0.0
0.35000000000000003 0.02 0.0
0.36 0.02 0.0
0.37 0.02 0.0
0.38 0.02 0.0
0.39 0.02 0.0
0.4 0.02 0.0
0.41000000000000003 0.02 0.0
0.42 0.02 0.0
0.43 0.02 0.0
0.44 0.02 0.0
0.45 0.02 0.0
0.46 0.02 0.0
0.47000000000000003 0.02 0.0
0.48 0.02 0.0
0.49 0.02 0.0
0.01 0.025 0.0
0.02 0.025 0.0
0.03 0.025 0.0
0.04 0.025 0.0
0.05 0.025 0.0
0.06 0.025 0.0
0.07 0.025 0.0
0.08 0.025 0.0
0.09 0.025 0.0
0.1 0.025 0.0
0.11 0.025 0.0
0.12 0.025 0.0
0.13 0.025 0.0
0.14 0.025 0.0
0.15 0.025 0.0
0.16 0.025 0.0
0.17 0.025 0.0
0.18 0.025 0.0
0.19 0.025 0.0
0.2 0.025 0.0
0.21 0.025 0.0
0.22 0.025 0.0
0.23 0.025 0.0
0.24 0.025 0.0
0.25 0.025 0.0
0.26 0.025 0.0
0.27 0.025 0.0
0.28 0.025 0.0
0.29 0.025 0.0
0.3 0.025 0.0
0.31 0.025 0.0
0.32 0.025 0.0
0.33 0.025 0.0
0.34 0.025 0.0
0.35000000000000003 0.025 0.0
0.36 0.025 0.0
0.37 0.025 0.0
0.38 0.025 0.0
0.39 0.025 0.0
0.4 0.025 0.0
0.41000000000000003 0.025 0.0
0.42 0.025 0.0
0.43 0.025 0.0
0.44 0.025 0.0
0.45 0.025 0.0
0.46 0.025 0.0
0.47000000000000003 0.025 0.0
0.48 0.025 0.0
0.49 0.025 0.0
0.01 0.03 0.0
0.02 0.03 0.0
0.03 0.03 0.0
0.04 0.03 0.0
0.05 0.03 0.0
0.06 0.03 0.0
0.07 0.03 0.0
0.08 0.03 0.0
0.09 0.03 0.0
0.1 0.03 0.0
0.11 0.03 0.0
0.12 0.03 0.0
0.13 0.03 0.0
0.14 0.03 0.0
0.15 0.03 0.0
0.16 0.03 0.0
0.17 0.03 0.0
0.18 0.03 0.0
0.19 0.03 0.0
0.2 0.03 0.0
0.21 0.03 0.0
0.22 0.03 0.0
0.23 0.03 0.0
0.24 0.03 0.0
0.25 0.03 0.0
0.26 0.03 0.0
0.27 0.03 0.0
0.28 0.03 0.0
0.29 0.03 0.0
0.3 0.03 0.0
0.31 0.03 0.0
0.32 0.03 0.0
0.33 0.03 0.0
0.34 0.03 0.0
0.35000000000000003 0.03 0.0
0.36 0.03 0.0
0.37 0.03 0.0
0.38 0.03 0.0
0.39 0.03 0.0
0.4 0.03 0.0
0.41000000000000003 0.03 0.0
0.42 0.03 0.0
0.43 0.03 0.0
0.44 0.03 0.0
0.45 0.03 0.0
0.46 0.03 0.0
0.47000000000000003 0.03 0.0
0.48 0.03 0.0
0.49 0.03 0.0
0.01 0.035 0.0
0.02 0.035 0.0
0.03 0.035 0.0
0.04 0.035 0.0
0.05 0.035 0.0
0.06 0.035 0.0
0.07 0.035 0.0
0.08 0.035 0.0
0.09 0.035 0.0
0.1 0.035 0.0
0.11 0.035 0.0
0.12 0.035 0.0
0.13 0.035 0.0
0.14 0.035 0.0
0.15 0.035 0.0
0.16 0.035 0.0
0.17 0.035 0.0
0.18 0.035 0.0
0.19 0.035 0.0
0.2 0.035 0.0
0.21 0.035 0.0
0.22 0.035 0.0
0.23 0.035 0.0
0.24 0.035 0.0
0.25 0.035 0.0
0.26 0.035 0.0
0.27 0.035 0.0
0.28 0.035 0.0
0.29 0.035 0.0
0.3 0.035 0.0
0.31 0.035 0.0
0.32 0.035 0.0
0.33 0.035 0.0
0.34 0.035 0.0
0.35000000000000003 0.035 0.0
0.36 0.035 0.0
0.37 0.035 0.0
0.38 0.035 0.0
0.39 0.035 0.0
0.4 0.035 0.0
0.41000000000000003 0.035 0.0
0.42 0.035 0.0
0.43 0.035 0.0
0.44 0.035 0.0
0.45 0.035 0.0
0.46 0.035 0.0
0.47000000000000003 0.035 0.0
0.48 0.035 0.0
0.49 0.035 0.0
0.01 0.04 0.0
0.02 0.04 0.0
0.03 0.04 0.0
0.04 0.04 0.0
0.05 0.04 0.0
0.06 0.04 0.0
0.07 0.04 0.0
0.08 0.04 0.0
0.09 0.04 0.0
0.1 0.04 0.0
0.11 0.04 0.0
0.12 0.04 0.0
0.13 0.04 0.0
0.14 0.04 0.0
0.15 0.04 0.0
0.16 0.04 0.0
0.17 0.04 0.0
0.18 0.04 0.0
0.19 0.04 0.0
0.2 0.04 0.0
0.21 0.04 0.0
0.22 0.04 0.0
0.23 0.04 0.0
0.24 0.04 0.0
0.25 0.04 0.0
0.26 0.04 0.0
0.27 0.04 0.0
0.28 0.04 0.0
0.29 0.04 0.0
0.3 0.04 0.0
0.31 0.04 0.0
0.32 0.04 0.0
0.33 0.04 0.0
0.34 0.04 0.0
0.35000000000000003 0.04 0.0
0.36 0.04 0.0
0.37 0.04 0.0
0.38 0.04 0.0
0.39 0.04 0.0
0.4 0.04 0.0
0.41000000000000003 0.04 0.0
0.42 0.04 0.0
0.43 0.04 0.0
0.44 0.04 0.0
0.45 0.04 0.0
0.46 0.04 0.0
0.47000000000000003 0.04 0.0
0.48 0.04 0.0
0.49 0.04 0.0
0.01 0.045 0.0
0.02 0.045 0.0
0.03 0.045 0.0
0.04 0.045 0.0
0.05 0.045 0.0
0.06 0.045 0.0
0.07 0.045 0.0
0.08 0.045 0.0
0.09 0.045 0.0
0.1 0.045 0.0
0.11 0.045 0.0
0.12 0.045 0.0
0.13 0.045 0.0
0.14 0.045 0.0
0.15 0.045 0.0
0.16 0.045 0.0
0.17 0.045 0.0
0.18 0.045 0.0
0.19 0.045 0.0
0.2 0.045 0.0
0.21 0.045 0.0
0.22 0.045 0.0
0.23 0.045 0.0
0.24 0.045 0.0
0.25 0.045 0.0
0.26 0.045 0.0
0.27 0.045 0.0
0.28 0.045 0.0
0.29 0.045 0.0
0.3 0.045 0.0
0.31 0.045 0.0
0.32 0.045 0.0
0.33 0.045 0.0
0.34 0.045 0.0
0.35000000000000003 0.045 0.0
0.36 0.045 0.0
0.37 0.045 0.0
0.38 0.045 0.0
0.39 0.045 0.0
0.4 0.045 0.0
0.41000000000000003 0.045 0.0
0.42 0.045 0.0
0.43 0.045 0.0
0.44 0.045 0.0
0.45 0.045 0.0
0.46 0.045 0.0
0.47000000000000003 0.045 0.0
0.48 0.045 0.0
0.49 0.045 0.0
0.01 0.05 0.0
0.02 0.05 0.0
0.03 0.05 0.0
0.04 0.05 0.0
0.05 0.05 0.0
0.06 0.05 0.0
0.07 0.05 0.0
0.08 0.05 0.0
0.09 0.05 0.0
0.1 0.05 0.0
0.11 0.05 0.0
0.12 0.05 0.0
0.13 0.05 0.0
0.14 0.05 0.0
0.15 0.05 0.0
0.16 0.05 0.0
0.17 0.05 0.0
0.18 0.05 0.0
0.19 0.05 0.0
0.2 0.05 0.0
0.21 0.05 0.0
0.22 0.05 0.0
0.23 0.05 0.0
0.24 0.05 0.0
0.25 0.05 0.0
0.26 0.05 0.0
0.27 0.05 0.0
0.28 0.05 0.0
0.29 0.05 0.0
0.3 0.05 0.0
0.31 0.05 0.0
0.32 0.05 0.0
0.33 0.05 0.0
0.34 0.05 0.0
0.35000000000000003 0.05 0.0
0.36 0.05 0.0
0.37 0.05 0.0
0.38 0.05 0.0
0.39 0.05 0.0
0.4 0.05 0.0
0.41000000000000003 0.05 0.0
0.42 0.05 0.0
0.43 0.05 0.0
0.44 0.05 0.0
0.45 0.05 0.0
0.46 0.05 0.0
0.47000000000000003 0.05 0.0
0.48 0.05 0.0
0.49 0.05 0.0
0.01 0.055 0.0
0.02 0.055 0.0
0.03 0.055 0.0
0.04 0.055 0.0
0.05 0.055 0.0
0.06 0.055 0.0
0.07 0.055 0.0
0.08 0.055 0.0
0.09 0.055 0.0
0.1 0.055 0.0
0.11 0.055 0.0
0.12 0.055 0.0
0.13 0.055 0.0
0.14 0.055 0.0
0.15 0.055 0.0
0.16 0.055 0.0
0.17 0.055 0.0
0.18 0.055 0.0
0.19 0.055 0.0
0.2 0.055 0.0
0.21 0.055 0.0
0.22 0.055 0.0
0.23 0.055 0.0
0.24 0.055 0.0
0.25 0.055 0.0
0.26 0.055 0.0
0.27 0.055 0.0
0.28 0.055 0.0
0.29 0.055 0.0
0.3 0.055 0.0
0.31 0.055 0.0
[...]
CELL_DATA 1000
SCALARS phi float 1
LOOKUP_TABLE CellColors
0.17965305179360017
0.07763617774771193
0.05308989334694983
0.04335612463983059
0.03820015133206635
0.035012239246875416
0.03284691540662887
0.031283432098430874
0.030109099776232908
0.029205341929735847
0.028499902405311788
0.027944992287044473
0.027506770966325256
0.027160061213763097
0.02688553917579519
0.026668112909939663
0.02649589162564373
0.02635946996192235
0.026251398098547027
0.026165773960944
0.02609792302947584
0.026044144557601012
0.026001509658877653
0.025967700632341956
0.025940883382443065
0.02591960639181539
0.025902720841298896
0.02588931743442575
0.025878676376925275
0.025870227749967892
0.02586352014060986
0.025858195844902204
0.025853971272871434
0.0258506214051362
0.025847967299994078
0.02584586570601583
0.025844199727414797
0.025842869094458654
0.025841777677681175
0.025840813959656428
0.025839816288216227
0.025838507156244594
0.025836365753247787
0.025832375736708723
0.025824509098996737
0.02580860952145647
0.025775705169846865
0.025703952025137106
0.02552439663444094
0.02530325633936108
0.34464557074890534
0.20768440321364812
0.15221259926462524
0.12571817437290736
0.11076680303998425
0.10123558662037019
0.09462597768928314
0.08977595564861325
0.08608624372193995
0.0832180834142182
0.08096199676084595
0.07917700743217823
0.0777613784957407
0.07663801911839575
0.07574679686529102
0.07504011386634085
0.07448006560698471
0.07403642322562842
0.07368509651662554
0.07340691707817219
0.07318665890076116
0.07301224625939634
0.07287411350342808
0.07276468952076627
0.0726779848092185
0.07260926245439128
0.07255477688194416
0.07251156670680757
0.0724772905049818
0.07245009666444234
0.07242852038068527
0.07241140227973336
0.07239782416052612
0.07238705807788814
0.0723785255004335
0.07237176351038761
0.07236639475318601
0.07236209673966401
0.07235856350001595
0.07235544707012881
0.07235225510866043
0.07234815931936907
0.07234162736899882
0.07232970250712425
0.0723065530348022
0.0722604301440451
0.07216687849565362
0.07197175698162116
0.0715400630600125
0.07104039956190564
0.4218509969151019
0.3041277492184049
0.23816711154996673
0.20091110195689396
0.17806649732718371
0.16282508931460474
0.15194932195750727
0.14381212540777552
0.13753675165874493
0.13261176846951986
0.12871184959607343
0.12561203922678144
0.1231459867121216
0.12118508477238714
0.11962745856943242
0.11839154685286613
0.11741186397047491
0.11663588142269066
0.11602156959708085
0.1155353961574066
0.1151506806103742
0.11484624299993901
0.11460529971122342
0.11441456739255176
0.1142635413372026
0.11414391839433995
0.11404913769999177
0.11397401605828326
0.11391445874324721
0.1138672303307924
0.11382977339683037
0.11380006535945617
0.11377650551093291
0.11375782558642525
0.11374301816245773
0.11373127766756531
0.1137219484735878
0.11371447286625583
0.11370832768963383
0.11370292990649827
0.11369747384302704
0.11369062938043892
0.11367996721143743
0.11366084775678273
0.11362422093284824
0.11355213495956985
0.11340825961176156
0.11311680757173231
0.11251216053367541
0.11183677228512065
0.45907941032204275
0.37118971096936787
0.3081763651323746
0.2665866562878742
0.23857640017815754
0.21877864254049836
0.20411851749554233
0.1928786202444528
0.18406875366528883
0.17708018678046514
0.17150719265968484
0.1670573648482428
0.1635070703081312
0.1606790383895243
0.15843037482882302
0.15664532312041934
0.15523021254760735
0.1541095198072238
0.15322261636134207
0.15252103159590422
0.15196615334374577
0.15152731232243496
0.1511802021783408
0.1509055893709335
0.15068826995302884
0.1505162330731522
0.15037999424028273
0.15027206565162918
0.15018653607315324
0.15011873804307427
0.15006498471978813
0.1500223622085145
0.14998856578179076
0.1499617703337292
0.14994052684510184
0.14992367746080676
0.1499102815162995
0.14989954278030002
0.14989072312832466
0.1498830169777993
0.1498753382518611
0.149865928632797
0.149851617912658
0.14982641281463632
0.14977874882452294
0.14968600686573627
0.14950343693735837
0.14914160694901726
0.1484207970331811
0.1476351426802561
0.4777248849767102
0.4161631601935053
0.362378912548022
0.32144009297022574
0.2910422999223349
0.2681069968775402
0.25037225233690413
0.23638373052224587
0.22521651323504058
0.21625374135257472
0.20905366232041472
0.2032784206883979
0.19865793726321215
0.19497156843947208
0.1920379583028491
0.18970838069416532
0.1878615651060575
0.1863992764357031
0.18524243065242102
0.18432769945239408
0.1836045919323805
0.18303299034658893
0.18258110094894958
0.18222377232260267
0.18194113122148386
0.18171748658590847
0.18154045508972058
0.18140026626158243
0.1812892114667348
0.1812012076496627
0.1811314525755188
0.18107615290551618
0.18103230986503904
0.18099754983928
0.18096998919444077
0.1809481238426649
0.18093073394651693
0.18091679184265483
0.18090535550423323
0.18089541736304499
0.18088565184917688
0.18087395456439115
0.18085657858064957
0.18082650774619716
0.18077033857255612
0.18066216691248357
0.18045162072033147
0.1800410230842508
0.17924402431490002
0.17839046873605824
0.48745226200677594
0.44565364043582584
0.4025929768488292
0.3652425696161181
0.3346812086285286
0.309985913249895
0.2899828710338107
0.27371879067461663
0.26048158550097494
0.24972868986352362
0.2410265939041742
0.23401557941871828
0.22839188858783657
0.22389869177416938
0.22032046586039936
0.21747827199768094
0.2152251395819358
0.21344150919969918
0.2120308972023445
0.21091594188842774
0.21003492629510803
0.20933880467134122
0.208788712272761
0.2083539134376432
0.2080101330564299
0.20773821413589144
0.20752304599668833
0.2073527125349159
0.2072178170856744
0.20711094822655254
0.2070262578832871
0.20695912874381478
0.20690591224315127
0.2068637216003276
0.20683026688092074
0.2068037207065496
0.20678260332302548
0.20676567329583084
0.20675180391619183
0.2067398119224972
0.20672817583634537
0.20671452489734785
0.2066946864354902
0.2066609129074676
0.20659853252180613
0.20647946364371308
0.2062497751526535
0.2058069890621552
0.2049614324847568
0.20406745601229112
0.49271270896605734
0.4646181017495551
0.43121948705709934
0.3985470097296218
0.3692015533628999
0.34383822380970364
0.32233144102851236
0.30431621255518704
0.2893766076352928
0.277100534114692
0.26709685536836686
0.25900434932124067
0.25249810430865505
0.2472932783650461
0.243145878875219
0.23985095534891568
0.23723905824282457
0.23517183131196004
0.23353739751898528
0.23224596146901266
0.23122585655114544
0.23042012632274478
0.22978364452815614
0.22928073443555266
0.22888322951679133
0.22856891155628845
0.22832026310317413
0.22812347614789913
0.22796766668787
0.22784425364722016
0.2277464686591178
0.22766896980913284
0.22760753746692433
0.22755883414044314
0.22752021327632269
0.227489564002923
0.22746517915099318
0.22744563139902438
0.2274296359790247
0.2274158644163404
0.2274026424936993
0.22738740452944947
0.22736567947171324
0.22732922345356135
0.22726253813807962
0.22713618258073734
0.22689409134171734
0.22643110015932652
0.22555568790823688
0.22463884286089736
0.49560784703188004
0.4764449549384556
0.4505461701972174
0.4222951002804291
0.3946868190243189
0.3693369014037402
0.34694725171686036
0.32769429151229057
0.31146576017474426
0.2979979448516425
0.2869584110722837
0.27799741710317716
0.27077911252114495
0.2649988200434628
0.2603907194227127
0.2567292754765719
0.25382699052300056
0.25153031314679514
0.24971488401070535
0.24828081359632131
0.2471483562891337
0.2462541341882677
0.24554794107682362
0.24499009428227816
0.24454927472853857
0.24420078614363927
0.24392516422585397
0.24370707159000385
0.24353442257760438
0.24339769159861177
0.2432893674987462
0.24320352381736907
0.24313548048944386
0.2430815368301716
0.24303875906973285
0.24300480815904918
0.24297779414770498
0.2429561409591521
0.24293843885409772
0.24292324777414967
0.2429087821539155
0.24289234263296478
0.24286926129054304
0.24283097596922484
0.242761482099079
0.24263054635798909
0.2423809012384822
0.2419059528498828
0.24101305338958437
0.24008415719593237
0.49715093026698315
0.48329755883416636
0.4624005217425111
0.43746951260828826
0.4114164774590166
0.3863482628294701
0.36351135234803694
0.34348405532459775
0.32639723485056876
0.31211346360923
0.3003547174291921
0.2907863119856053
0.28306813336769776
0.2768831264239031
0.27195078504494097
0.26803134575123577
0.26492468827109256
0.26246657657990036
0.26052385365461606
0.25898950955204214
0.25777809917714173
0.2568217156281152
0.2560665713219268
0.25547016085823127
0.25499894506325743
0.2546264836232146
0.2543319428262566
0.254098910032822
0.253914455045426
0.25376838866130613
0.2536526780131953
0.2535609862329159
0.2534883101500838
0.2534306943574082
0.25338500373853035
0.2533487393177259
0.253319883082294
0.25329675497091353
0.2532778586074997
0.2532616783310046
0.25324635660949113
0.25322911222429234
0.25320515920385966
0.2531657472976044
0.2530945883725584
0.2529610317271444
0.2527071917791389
0.2522257700082643
0.2513234342869539
0.2503888037131762
0.4978247328490897
0.48643580768582423
0.4680191009370712
0.4448461034217142
0.41968913493611903
0.3948487465495219
0.3718357621108583
0.3514398322269025
0.3339257475365454
0.31922808538291847
0.3071011402760455
0.29722029166210584
0.28924436096589734
0.28285042724626197
0.27775062466067574
0.27369792625769573
0.27048571764240453
0.2679442468538805
0.26593580876400263
0.26434971093976334
0.2630975607173279
0.26210910928762604
0.261328717510827
0.2607124210289243
0.26022553363786566
0.2598407143644733
0.2595364225894841
0.2592956907371873
0.25910515276394824
0.25895427698175294
0.25883476128983374
0.2587400571009488
0.2586649946837475
0.2586054874427271
0.25855829661289514
0.25852084082640936
0.25849103595572515
0.2584671481839483
0.2584476365551846
0.25843094739408773
0.2584151889788602
0.25839754302209567
0.25837316790863646
0.25833322198472375
0.25826128950032173
0.2581265501735172
0.2578708645847805
0.25738664877510564
0.25648024157395966
0.25554340936586706
0.4978247333658456
0.4864358092032015
0.4680191054436465
0.44484611594449047
0.41968914523900164
0.39484875976291245
0.3718357666556814
0.35143982910324506
0.3339257410755656
0.31922807961766947
0.3071011367078274
0.2972202867312319
0.28924435261917025
0.2828504180740654
0.27775061893754777
0.27369792645127905
0.2704857233891277
0.26794425587684007
0.26593581841145
0.2643497193535678
0.2630975671464033
0.26210911369996037
0.2613287200567925
0.26071242179853443
0.26022553274380933
0.2598407121133263
0.2595364195294386
0.2592956875150136
0.259105149910897
0.2589542747565926
0.25883475965407643
0.2587400558426753
0.2586649936285545
0.2586054866342583
0.25855829631962757
0.2585208413060304
0.25849103707382964
0.2584671491319144
0.25844763594438447
0.25843094423439295
0.25841518496201044
0.25839754376169355
0.25837317725224446
0.25833323220613136
0.2582612878371332
0.2581265390619261
0.25787085086887623
0.25738663322627303
0.256480231343531
0.2555433953791332
0.4971509313124766
0.4832975618856207
0.4624005318260744
0.43746953861598664
0.4114165089477799
0.3863482994577652
0.3635113635087477
0.34348404549827005
0.32639721570228036
0.31211344677484604
0.30035470674080744
0.2907862971009115
0.28306810846787483
0.2768830991190441
0.2719507677717349
0.26803134566297243
0.2649247042895995
0.2624666020833853
0.2605238809526273
0.25898953326682395
0.2577781171361662
0.2568217277319114
0.2560665779955224
0.2554701623498556
0.25499894169762855
0.2546264762995028
0.2543319331380584
0.254098899862731
0.25391444593745194
0.25376838136148183
0.2536526724057163
0.25356098170035785
0.2534883061914336
0.2534306911143059
0.2533850020140975
0.2533487398776066
0.25331988552423046
0.25329675688790404
0.2532778558719614
0.2532616680056405
0.2532463436969418
0.25322911327022013
0.2532051854630537
0.2531657759364153
0.2530945819971431
0.2529609982682801
0.2527071520246614
0.2522257253245623
0.2513234057612455
0.2503887644382783
0.49560784719179013
0.4764449554752488
0.4505461803068759
0.42229513480992054
0.3946868690960922
0.36933695184328347
0.34694726413778587
0.32769427382223815
0.31146572880620965
0.2979979180864873
0.28695839313384824
0.27799739181687577
0.27077907131788836
0.26499877507244984
0.26039069015215616
0.25672927302307624
0.25382701313786377
0.25153035047672506
0.24971492409656162
0.24828084810617493
0.2471483818615581
0.2462541506420282
0.24554794902283827
0.24499009407326053
0.2445492668638869
0.2442007720446887
0.2439251463971413
0.24370705297337975
0.24353440557623018
0.24339767736552842
0.24328935584432695
0.2432035137754239
0.2431354712921255
0.24308152874447178
0.24303875342265205
0.2430048062003731
0.24297779521385104
0.24295614111106348
0.24293843135182142
0.24292322783522396
0.2429087578603379
0.2428923405658347
0.242869299276292
0.24283101717242722
0.24276146720055025
0.2426304904862465
0.24238083981477945
0.24190588495223928
0.24101301262856567
0.2400841000753048
0.49271270624679464
0.4646180946725839
0.43121949045305785
0.39854704677343006
0.36920161807117424
0.343838273582248
0.32233144958429
0.30431618518807496
0.2893765650123436
0.27710049875415865
0.267096829588284
0.2590043126815015
0.2524980470258839
0.24729321632989681
0.24314583679006452
0.23985094717101202
0.23723908164655355
0.2351718731908967
0.23353744285001965
0.23224599983533842
0.23122588374029207
0.2304201420415085
0.22978364943828758
0.22928072890552817
0.2288832141632843
0.22856888820540297
0.2283202349525224
0.2281234469249083
0.2279676394169796
0.2278442297666384
0.2277464479148167
0.22766895097620746
0.2276075196022101
0.227558817668819
0.2275202000160683
0.22748955564267023
0.227465174788592
0.2274456257055775
0.22742961985166932
0.22741583140703678
0.22740260333289392
0.22738739430263796
0.22736572127688104
0.2273292685110968
0.22726250976044193
0.22713610533853587
0.2268940161155087
0.22643101896423054
0.22555564352329502
0.22463877828788176
0.487452254707393
0.4456536219097291
0.402592968366102
0.3652426039468155
0.3346812664305771
0.3099859508517283
0.28998286798328415
0.2737187522327239
0.2604815338782667
0.24972864758698338
0.24102655979133789
0.23401553090204277
0.22839181639841205
0.2238986143939814
0.22032041088183005
0.21747825480444757
0.21522515744164472
0.2134415475332459
0.21203093944336907
0.21091597660322345
0.21003494881624082
0.20933881454121717
0.2087887100418125
0.20835389938710383
0.20801010784438986
0.20773817983140458
0.20752300620028905
0.20735267140929023
0.20721777798413007
0.20711091272569265
0.2070262256816388
0.20695909847660496
0.20690588290052675
0.20686369378351915
0.20683024282798523
0.20680370247064175
0.2067825898175587
0.2067656580641908
0.2067517759201259
0.20673976332150526
0.2067281193171164
0.20671450183206705
0.20669472355759688
0.20666095274828017
0.20659848736470635
0.20647936927826394
0.2062496981236714
0.20580690831355522
0.20496139341511357
0.20406739454108508
0.47772487335202596
0.41616313158545026
0.3623788940701062
0.3214401169861135
0.2910423398073779
0.26810701367131823
0.2503722338215605
0.23638368331143195
0.22521645785611336
0.21625369613020498
0.20905362211473688
0.20327836330246382
0.19865785541591802
0.19497148163444455
0.19203789429885343
0.18970835474402206
0.18786157433657602
0.18639930627461476
0.1852424646792278
0.18432772635526823
0.18360460699231537
0.1830329928854955
0.1825810912564973
0.182223750506957
0.1819410978965157
0.18171744386237196
0.18154040662704335
0.18140021625715957
0.1812891632814822
0.18120116285063997
0.18113141084217027
0.18107611286643502
0.18103227055457607
0.18099751201906614
0.18096995538941268
0.1809480963575446
0.18093071161162885
0.1809167675065019
0.18090531686815078
0.18089535558751577
0.18088558055609724
0.18087391844397588
0.18085660616664054
0.1808265375143755
0.1807702795459183
0.18066206592186554
0.18045155808286512
0.18004095947201956
0.17924399704215627
0.17839041797858027
0.45907939855708085
0.3711896827913961
0.30817634545453204
0.26658667066662467
0.23857642049266597
0.2187786407464385
0.2041184898078408
0.19287857421060695
0.18406870538999187
0.17708014793242294
0.17150715512733505
0.16705730927526372
0.16350699215906422
0.1606789561785707
0.15843031362130003
0.15664529651194303
0.15523021788424426
0.1541095440520334
0.153222644899906
0.15252105432221308
0.15196616587537165
0.15152731375257547
0.15118019246068803
0.15090556840801297
0.15068823824076222
0.15051619254043172
0.15037994823071324
0.15027201798021023
0.15018648978550492
0.15011869455745128
0.15006494373955692
0.15002232248995134
0.1499885264966076
0.14996173233655094
0.1499404927339214
0.14992364962774649
0.14991025886271667
0.1498995181046437
0.14989068386490373
0.14988295385104725
0.1498752644354832
0.14986588835605066
0.149851639532596
0.14982643671213214
0.14977868921056203
0.149685917862479
0.14950340657737704
0.14914157707593673
0.14842078314538018
0.14763510512686193
0.42185099243501395
0.30412773600775145
0.2381671040426778
0.20091111495634262
0.17806650817344574
0.16282508334747178
0.15194930094922152
0.14381209619417282
0.13753672461997793
0.13261174880776058
0.12871182852548269
0.12561200218237734
0.1231459316848019
0.12118502700206031
0.11962741779270404
0.11839153370469137
0.11741187639942355
0.11663590928837951
0.11602160150892749
0.11553542413915058
0.11515070100511972
0.11484625478236983
0.11460530256526975
0.11441456107572964
0.11426352618889654
0.11414389594766138
0.11404911062047016
0.11397398738385665
0.11391443090637439
0.11386720447516951
0.11382974929244269
0.11380004201452783
0.11377648229429602
0.11375780331761659
0.11374299921361908
0.11373126428088709
0.11372193980650874
0.1137144625279229
0.1137083042161537
0.1137028844203553
0.11369741739988562
0.11369060112593281
0.11367999303318073
0.11366087679018146
0.11362418082055613
0.11355207899139758
0.11340827204302997
0.11311681973296285
0.1125121559982059
0.11183674544801481
0.3446455767409563
0.20768440961381907
0.15221260816305943
0.12571819054937294
0.11076681433296195
0.10123558860581457
0.09462597338325406
0.08977594957079002
0.0860862410264678
0.08321808524618621
0.08096199645481403
0.07917699622919472
0.07776135592292593
0.07663799509775554
0.07574678386278445
0.07504011863273058
0.07448008694936725
0.07403645483361136
0.0736851312116216
0.0734069497200241
0.07318668698084027
0.0730122689095913
0.07287413035771027
0.0727647003406417
0.07267798978624511
0.07260926256435257
0.07255477382624723
0.07251156243111806
0.07247728658286118
0.07245009385292048
0.07242851854187074
0.07241140076549772
0.07239782256773482
0.0723870570221044
0.07237852674507211
0.0723717688062453
0.07236640366169618
0.07236210469144809
0.07235856190400901
0.07235542875401606
0.0723522273399501
0.07234815069021747
0.07234165809594899
0.07232973739112739
0.07230654100297369
0.07226041235973166
0.07216692007446944
0.07197179690869586
0.07154006049263105
0.07104037916899877
0.17965305880830507
0.0776361875501651
0.05308990325610742
0.04335613497761209
0.038200159604669735
0.035012244921034934
0.03284691977472917
0.031283436677946794
0.030109105966188817
0.029205349635603964
0.028499909134254597
0.027944995162988307
0.027506769986717392
0.02716005980394165
0.026885541584553013
0.026668121473703434
0.02649590599610297
0.026359488026243192
0.026251417402095047
0.026165792699991437
0.026097940274544786
0.02604415994371915
0.026001523016072146
0.02596771185750934
0.025940892532894715
0.025919613796441678
0.025902727079185072
0.025889323174704566
0.025878682170736172
0.025870233871604836
0.025863526545707796
0.025858202294416054
0.025853977615003097
0.025850627886476935
0.02584797464486007
0.025845874689912157
0.025844210294456334
0.02584287949141195
0.025841784329174555
0.025840813509758326
0.025839811131160725
0.02583850905312576
0.025836384007503786
0.025832396716443922
0.025824511648921977
0.02580861133222731
0.025775735598451262
0.02570398167184547
0.02552439428316082
0.025303246248546733
