# vtk DataFile Version 3.0
jCFD simulation data
ASCII
DATASET UNSTRUCTURED_GRID
POINTS 8241 double
0.0 0.0 0.0
0.5 0.0 0.0
0.0 0.1 0.0
0.5 0.1 0.0
0.0025 0.0 0.0
0.005 0.0 0.0
0.0075 0.0 0.0
0.01 0.0 0.0
0.0125 0.0 0.0
0.015 0.0 0.0
0.0175 0.0 0.0
0.02 0.0 0.0
0.0225 0.0 0.0
0.025 0.0 0.0
0.0275 0.0 0.0
0.03 0.0 0.0
0.0325 0.0 0.0
0.035 0.0 0.0
0.0375 0.0 0.0
0.04 0.0 0.0
0.0425 0.0 0.0
0.045 0.0 0.0
0.0475 0.0 0.0
0.05 0.0 0.0
0.0525 0.0 0.0
0.055 0.0 0.0
0.0575 0.0 0.0
0.06 0.0 0.0
0.0625 0.0 0.0
0.065 0.0 0.0
0.0675 0.0 0.0
0.07 0.0 0.0
0.0725 0.0 0.0
0.075 0.0 0.0
0.0775 0.0 0.0
0.08 0.0 0.0
0.0825 0.0 0.0
0.085 0.0 0.0
0.08750000000000001 0.0 0.0
0.09 0.0 0.0
0.0925 0.0 0.0
0.095 0.0 0.0
0.0975 0.0 0.0
0.1 0.0 0.0
0.10250000000000001 0.0 0.0
0.105 0.0 0.0
0.1075 0.0 0.0
0.11 0.0 0.0
0.1125 0.0 0.0
0.115 0.0 0.0
0.11750000000000001 0.0 0.0
0.12 0.0 0.0
0.1225 0.0 0.0
0.125 0.0 0.0
0.1275 0.0 0.0
0.13 0.0 0.0
0.1325 0.0 0.0
0.135 0.0 0.0
0.1375 0.0 0.0
0.14 0.0 0.0
0.14250000000000002 0.0 0.0
0.145 0.0 0.0
0.1475 0.0 0.0
0.15 0.0 0.0
0.1525 0.0 0.0
0.155 0.0 0.0
0.1575 0.0 0.0
0.16 0.0 0.0
0.1625 0.0 0.0
0.165 0.0 0.0
0.1675 0.0 0.0
0.17 0.0 0.0
0.17250000000000001 0.0 0.0
0.17500000000000002 0.0 0.0
0.1775 0.0 0.0
0.18 0.0 0.0
0.1825 0.0 0.0
0.185 0.0 0.0
0.1875 0.0 0.0
0.19 0.0 0.0
0.1925 0.0 0.0
0.195 0.0 0.0
0.1975 0.0 0.0
0.2 0.0 0.0
0.2025 0.0 0.0
0.20500000000000002 0.0 0.0
0.20750000000000002 0.0 0.0
0.21 0.0 0.0
0.2125 0.0 0.0
0.215 0.0 0.0
0.2175 0.0 0.0
0.22 0.0 0.0
0.2225 0.0 0.0
0.225 0.0 0.0
0.2275 0.0 0.0
0.23 0.0 0.0
0.2325 0.0 0.0
0.23500000000000001 0.0 0.0
0.23750000000000002 0.0 0.0
0.24 0.0 0.0
0.2425 0.0 0.0
0.245 0.0 0.0
0.2475 0.0 0.0
0.25 0.0 0.0
0.2525 0.0 0.0
0.255 0.0 0.0
0.2575 0.0 0.0
0.26 0.0 0.0
0.2625 0.0 0.0
0.265 0.0 0.0
0.2675 0.0 0.0
0.27 0.0 0.0
0.2725 0.0 0.0
0.275 0.0 0.0
0.2775 0.0 0.0
0.28 0.0 0.0
0.28250000000000003 0.0 0.0
0.28500000000000003 0.0 0.0
0.28750000000000003 0.0 0.0
0.29 0.0 0.0
0.2925 0.0 0.0
0.295 0.0 0.0
0.2975 0.0 0.0
0.3 0.0 0.0
0.3025 0.0 0.0
0.305 0.0 0.0
0.3075 0.0 0.0
0.31 0.0 0.0
0.3125 0.0 0.0
0.315 0.0 0.0
0.3175 0.0 0.0
0.32 0.0 0.0
0.3225 0.0 0.0
0.325 0.0 0.0
0.3275 0.0 0.0
0.33 0.0 0.0
0.3325 0.0 0.0
0.335 0.0 0.0
0.3375 0.0 0.0
0.34 0.0 0.0
0.3425 0.0 0.0
0.34500000000000003 0.0 0.0
0.34750000000000003 0.0 0.0
0.35000000000000003 0.0 0.0
0.3525 0.0 0.0
0.355 0.0 0.0
0.3575 0.0 0.0
0.36 0.0 0.0
0.3625 0.0 0.0
0.365 0.0 0.0
0.3675 0.0 0.0
0.37 0.0 0.0
0.3725 0.0 0.0
0.375 0.0 0.0
0.3775 0.0 0.0
0.38 0.0 0.0
0.3825 0.0 0.0
0.385 0.0 0.0
0.3875 0.0 0.0
0.39 0.0 0.0
0.3925 0.0 0.0
0.395 0.0 0.0
0.3975 0.0 0.0
0.4 0.0 0.0
0.4025 0.0 0.0
0.405 0.0 0.0
0.40750000000000003 0.0 0.0
0.41000000000000003 0.0 0.0
0.41250000000000003 0.0 0.0
0.41500000000000004 0.0 0.0
0.4175 0.0 0.0
0.42 0.0 0.0
0.4225 0.0 0.0
0.425 0.0 0.0
0.4275 0.0 0.0
0.43 0.0 0.0
0.4325 0.0 0.0
0.435 0.0 0.0
0.4375 0.0 0.0
0.44 0.0 0.0
0.4425 0.0 0.0
0.445 0.0 0.0
0.4475 0.0 0.0
0.45 0.0 0.0
0.4525 0.0 0.0
0.455 0.0 0.0
0.4575 0.0 0.0
0.46 0.0 0.0
0.4625 0.0 0.0
0.465 0.0 0.0
0.4675 0.0 0.0
0.47000000000000003 0.0 0.0
0.47250000000000003 0.0 0.0
0.47500000000000003 0.0 0.0
0.47750000000000004 0.0 0.0
0.48 0.0 0.0
0.4825 0.0 0.0
0.485 0.0 0.0
0.4875 0.0 0.0
0.49 0.0 0.0
0.4925 0.0 0.0
0.495 0.0 0.0
0.4975 0.0 0.0
0.0025 0.1 0.0
0.005 0.1 0.0
0.0075 0.1 0.0
0.01 0.1 0.0
0.0125 0.1 0.0
0.015 0.1 0.0
0.0175 0.1 0.0
0.02 0.1 0.0
0.0225 0.1 0.0
0.025 0.1 0.0
0.0275 0.1 0.0
0.03 0.1 0.0
0.0325 0.1 0.0
0.035 0.1 0.0
0.0375 0.1 0.0
0.04 0.1 0.0
0.0425 0.1 0.0
0.045 0.1 0.0
0.0475 0.1 0.0
0.05 0.1 0.0
0.0525 0.1 0.0
0.055 0.1 0.0
0.0575 0.1 0.0
0.06 0.1 0.0
0.0625 0.1 0.0
0.065 0.1 0.0
0.0675 0.1 0.0
0.07 0.1 0.0
0.0725 0.1 0.0
0.075 0.1 0.0
0.0775 0.1 0.0
0.08 0.1 0.0
0.0825 0.1 0.0
0.085 0.1 0.0
0.08750000000000001 0.1 0.0
0.09 0.1 0.0
0.0925 0.1 0.0
0.095 0.1 0.0
0.0975 0.1 0.0
0.1 0.1 0.0
0.10250000000000001 0.1 0.0
0.105 0.1 0.0
0.1075 0.1 0.0
0.11 0.1 0.0
0.1125 0.1 0.0
0.115 0.1 0.0
0.11750000000000001 0.1 0.0
0.12 0.1 0.0
0.1225 0.1 0.0
0.125 0.1 0.0
0.1275 0.1 0.0
0.13 0.1 0.0
0.1325 0.1 0.0
0.135 0.1 0.0
0.1375 0.1 0.0
0.14 0.1 0.0
0.14250000000000002 0.1 0.0
0.145 0.1 0.0
0.1475 0.1 0.0
0.15 0.1 0.0
0.1525 0.1 0.0
0.155 0.1 0.0
0.1575 0.1 0.0
0.16 0.1 0.0
0.1625 0.1 0.0
0.165 0.1 0.0
0.1675 0.1 0.0
0.17 0.1 0.0
0.17250000000000001 0.1 0.0
0.17500000000000002 0.1 0.0
0.1775 0.1 0.0
0.18 0.1 0.0
0.1825 0.1 0.0
0.185 0.1 0.0
0.1875 0.1 0.0
0.19 0.1 0.0
0.1925 0.1 0.0
0.195 0.1 0.0
0.1975 0.1 0.0
0.2 0.1 0.0
0.2025 0.1 0.0
0.20500000000000002 0.1 0.0
0.20750000000000002 0.1 0.0
0.21 0.1 0.0
0.2125 0.1 0.0
0.215 0.1 0.0
0.2175 0.1 0.0
0.22 0.1 0.0
0.2225 0.1 0.0
0.225 0.1 0.0
0.2275 0.1 0.0
0.23 0.1 0.0
0.2325 0.1 0.0
0.23500000000000001 0.1 0.0
0.23750000000000002 0.1 0.0
0.24 0.1 0.0
0.2425 0.1 0.0
0.245 0.1 0.0
0.2475 0.1 0.0
0.25 0.1 0.0
0.2525 0.1 0.0
0.255 0.1 0.0
0.2575 0.1 0.0
0.26 0.1 0.0
0.2625 0.1 0.0
0.265 0.1 0.0
0.2675 0.1 0.0
0.27 0.1 0.0
0.2725 0.1 0.0
0.275 0.1 0.0
0.2775 0.1 0.0
0.28 0.1 0.0
0.28250000000000003 0.1 0.0
0.28500000000000003 0.1 0.0
0.28750000000000003 0.1 0.0
0.29 0.1 0.0
0.2925 0.1 0.0
0.295 0.1 0.0
0.2975 0.1 0.0
0.3 0.1 0.0
0.3025 0.1 0.0
0.305 0.1 0.0
0.3075 0.1 0.0
0.31 0.1 0.0
0.3125 0.1 0.0
0.315 0.1 0.0
0.3175 0.1 0.0
0.32 0.1 0.0
0.3225 0.1 0.0
0.325 0.1 0.0
0.3275 0.1 0.0
0.33 0.1 0.0
0.3325 0.1 0.0
0.335 0.1 0.0
0.3375 0.1 0.0
0.34 0.1 0.0
0.3425 0.1 0.0
0.34500000000000003 0.1 0.0
0.34750000000000003 0.1 0.0
0.35000000000000003 0.1 0.0
0.3525 0.1 0.0
0.355 0.1 0.0
0.3575 0.1 0.0
0.36 0.1 0.0
0.3625 0.1 0.0
0.365 0.1 0.0
0.3675 0.1 0.0
0.37 0.1 0.0
0.3725 0.1 0.0
0.375 0.1 0.0
0.3775 0.1 0.0
0.38 0.1 0.0
0.3825 0.1 0.0
0.385 0.1 0.0
0.3875 0.1 0.0
0.39 0.1 0.0
0.3925 0.1 0.0
0.395 0.1 0.0
0.3975 0.1 0.0
0.4 0.1 0.0
0.4025 0.1 0.0
0.405 0.1 0.0
0.40750000000000003 0.1 0.0
0.41000000000000003 0.1 0.0
0.41250000000000003 0.1 0.0
0.41500000000000004 0.1 0.0
0.4175 0.1 0.0
0.42 0.1 0.0
0.4225 0.1 0.0
0.425 0.1 0.0
0.4275 0.1 0.0
0.43 0.1 0.0
0.4325 0.1 0.0
0.435 0.1 0.0
0.4375 0.1 0.0
0.44 0.1 0.0
0.4425 0.1 0.0
0.445 0.1 0.0
0.4475 0.1 0.0
0.45 0.1 0.0
0.4525 0.1 0.0
0.455 0.1 0.0
0.4575 0.1 0.0
0.46 0.1 0.0
0.4625 0.1 0.0
0.465 0.1 0.0
0.4675 0.1 0.0
0.47000000000000003 0.1 0.0
0.47250000000000003 0.1 0.0
0.47500000000000003 0.1 0.0
0.47750000000000004 0.1 0.0
0.48 0.1 0.0
0.4825 0.1 0.0
0.485 0.1 0.0
0.4875 0.1 0.0
0.49 0.1 0.0
0.4925 0.1 0.0
0.495 0.1 0.0
0.4975 0.1 0.0
0.0 0.0025 0.0
0.0 0.005 0.0
0.0 0.0075 0.0
0.0 0.01 0.0
0.0 0.0125 0.0
0.0 0.015 0.0
0.0 0.0175 0.0
0.0 0.02 0.0
0.0 0.0225 0.0
0.0 0.025 0.0
0.0 0.0275 0.0
0.0 0.03 0.0
0.0 0.0325 0.0
0.0 0.035 0.0
0.0 0.0375 0.0
0.0 0.04 0.0
0.0 0.0425 0.0
0.0 0.045 0.0
0.0 0.0475 0.0
0.0 0.05 0.0
0.0 0.0525 0.0
0.0 0.055 0.0
0.0 0.0575 0.0
0.0 0.06 0.0
0.0 0.0625 0.0
0.0 0.065 0.0
0.0 0.0675 0.0
0.0 0.07 0.0
0.0 0.0725 0.0
0.0 0.075 0.0
0.0 0.0775 0.0
0.0 0.08 0.0
0.0 0.0825 0.0
0.0 0.085 0.0
0.0 0.08750000000000001 0.0
0.0 0.09 0.0
0.0 0.0925 0.0
0.0 0.095 0.0
0.0 0.0975 0.0
0.5 0.0025 0.0
0.5 0.005 0.0
0.5 0.0075 0.0
0.5 0.01 0.0
0.5 0.0125 0.0
0.5 0.015 0.0
0.5 0.0175 0.0
0.5 0.02 0.0
0.5 0.0225 0.0
0.5 0.025 0.0
0.5 0.0275 0.0
0.5 0.03 0.0
0.5 0.0325 0.0
0.5 0.035 0.0
0.5 0.0375 0.0
0.5 0.04 0.0
0.5 0.0425 0.0
0.5 0.045 0.0
0.5 0.0475 0.0
0.5 0.05 0.0
0.5 0.0525 0.0
0.5 0.055 0.0
0.5 0.0575 0.0
0.5 0.06 0.0
0.5 0.0625 0.0
0.5 0.065 0.0
0.5 0.0675 0.0
0.5 0.07 0.0
0.5 0.0725 0.0
0.5 0.075 0.0
0.5 0.0775 0.0
0.5 0.08 0.0
0.5 0.0825 0.0
0.5 0.085 0.0
0.5 0.08750000000000001 0.0
0.5 0.09 0.0
0.5 0.0925 0.0
0.5 0.095 0.0
0.5 0.0975 0.0
0.0025 0.0025 0.0
0.005 0.0025 0.0
0.0075 0.0025 0.0
0.01 0.0025 0.0
0.0125 0.0025 0.0
0.015 0.0025 0.0
0.0175 0.0025 0.0
0.02 0.0025 0.0
0.0225 0.0025 0.0
0.025 0.0025 0.0
0.0275 0.0025 0.0
0.03 0.0025 0.0
0.0325 0.0025 0.0
0.035 0.0025 0.0
0.0375 0.0025 0.0
0.04 0.0025 0.0
0.0425 0.0025 0.0
0.045 0.0025 0.0
0.0475 0.0025 0.0
0.05 0.0025 0.0
0.0525 0.0025 0.0
0.055 0.0025 0.0
0.0575 0.0025 0.0
0.06 0.0025 0.0
0.0625 0.0025 0.0
0.065 0.0025 0.0
0.0675 0.0025 0.0
0.07 0.0025 0.0
0.0725 0.0025 0.0
0.075 0.0025 0.0
0.0775 0.0025 0.0
0.08 0.0025 0.0
0.0825 0.0025 0.0
0.085 0.0025 0.0
0.08750000000000001 0.0025 0.0
0.09 0.0025 0.0
0.0925 0.0025 0.0
0.095 0.0025 0.0
0.0975 0.0025 0.0
0.1 0.0025 0.0
0.10250000000000001 0.0025 0.0
0.105 0.0025 0.0
0.1075 0.0025 0.0
0.11 0.0025 0.0
0.1125 0.0025 0.0
0.115 0.0025 0.0
0.11750000000000001 0.0025 0.0
0.12 0.0025 0.0
0.1225 0.0025 0.0
0.125 0.0025 0.0
0.1275 0.0025 0.0
0.13 0.0025 0.0
0.1325 0.0025 0.0
0.135 0.0025 0.0
0.1375 0.0025 0.0
0.14 0.0025 0.0
0.14250000000000002 0.0025 0.0
0.145 0.0025 0.0
0.1475 0.0025 0.0
0.15 0.0025 0.0
0.1525 0.0025 0.0
0.155 0.0025 0.0
0.1575 0.0025 0.0
0.16 0.0025 0.0
0.1625 0.0025 0.0
0.165 0.0025 0.0
0.1675 0.0025 0.0
0.17 0.0025 0.0
0.17250000000000001 0.0025 0.0
0.17500000000000002 0.0025 0.0
0.1775 0.0025 0.0
0.18 0.0025 0.0
0.1825 0.0025 0.0
0.185 0.0025 0.0
0.1875 0.0025 0.0
0.19 0.0025 0.0
0.1925 0.0025 0.0
0.195 0.0025 0.0
0.1975 0.0025 0.0
0.2 0.0025 0.0
0.2025 0.0025 0.0
0.20500000000000002 0.0025 0.0
0.20750000000000002 0.0025 0.0
0.21 0.0025 0.0
0.2125 0.0025 0.0
0.215 0.0025 0.0
0.2175 0.0025 0.0
0.22 0.0025 0.0
0.2225 0.0025 0.0
0.225 0.0025 0.0
0.2275 0.0025 0.0
0.23 0.0025 0.0
0.2325 0.0025 0.0
0.23500000000000001 0.0025 0.0
0.23750000000000002 0.0025 0.0
0.24 0.0025 0.0
0.2425 0.0025 0.0
0.245 0.0025 0.0
0.2475 0.0025 0.0
0.25 0.0025 0.0
0.2525 0.0025 0.0
0.255 0.0025 0.0
0.2575 0.0025 0.0
0.26 0.0025 0.0
0.2625 0.0025 0.0
0.265 0.0025 0.0
0.2675 0.0025 0.0
0.27 0.0025 0.0
0.2725 0.0025 0.0
0.275 0.0025 0.0
0.2775 0.0025 0.0
0.28 0.0025 0.0
0.28250000000000003 0.0025 0.0
0.28500000000000003 0.0025 0.0
0.28750000000000003 0.0025 0.0
0.29 0.0025 0.0
0.2925 0.0025 0.0
0.295 0.0025 0.0
0.2975 0.0025 0.0
0.3 0.0025 0.0
0.3025 0.0025 0.0
0.305 0.0025 0.0
0.3075 0.0025 0.0
0.31 0.0025 0.0
0.3125 0.0025 0.0
0.315 0.0025 0.0
0.3175 0.0025 0.0
0.32 0.0025 0.0
0.3225 0.0025 0.0
[...]
CELL_DATA 8000
SCALARS phi float 1
LOOKUP_TABLE CellColors
0.8303511857256761
0.6819182459559037
0.5349828614957188
0.4465626534831396
0.3879083323619976
0.3460315235802326
0.3143961132416863
0.28936572706253855
0.2688679291499074
0.251671507233281
0.23699957175709657
0.2243296596861956
0.21328988515392167
0.20360308772068214
0.19505522785949697
0.1874764641843364
0.18072918989951758
0.17470009411044718
0.16929467174085114
0.16443329225799233
0.16004830057038877
0.15608182493676587
0.15248408360627566
0.14921205246019278
0.14622839999979065
0.1435006243926784
0.14100034603047418
0.13870272172266346
0.13658595540364477
0.1346308863949685
0.1328206406894724
0.13114033395542748
0.12957681735795146
0.12811845910260952
0.12675495598686617
0.1254771703130183
0.12427698835108385
0.12314719719978318
0.1220813774203737
0.12107380924235478
0.12011939048506656
0.11921356462230259
0.11835225765077402
0.117531822617849
0.11674899082657844
0.11600082887280658
0.11528470078462892
0.11459823463233794
0.11393929306034611
0.11330594726377433
0.11269645399347251
0.11210923522587393
0.11154286017950242
0.11099602939940256
0.1104675606648945
0.10995637650593502
0.10946149313935416
0.10898201065889775
0.10851710433290429
0.10806601688091436
0.10762805161564623
0.10720256635024832
0.10678896798244938
0.10638670767764558
0.1059952765819966
0.10561420200463727
0.10524304401524408
0.10488139240939973
0.10452886399970215
0.10418510019548059
0.10384976483827048
0.10352254226399699
0.10320313556619326
0.10289126503755884
0.1025866667698185
0.10228909139410379
0.10199830294620604
0.10171407784283173
0.1014362039565956
0.10116447977892055
0.1008987136612486
0.10063872312610614
0.10038433424049054
0.10013538104495592
0.09989170503252683
0.09965315467222709
0.09941958497261356
0.09919085708123633
0.09896683791638688
0.09874739982795469
0.09853242028450039
0.09832178158402835
0.09811537058621767
0.0979130784640944
0.09771480047334824
0.0975204357377225
0.09732988704904888
0.09714306068066259
0.09695986621303869
0.09678021637065264
0.09660402686915531
0.09643121627201143
0.09626170585589601
0.0960954194841502
0.09593228348770691
0.09577222655294909
0.09561517961597812
0.09546107576285717
0.09530985013542417
0.09516143984228617
0.09501578387465748
0.09487282302671929
0.0947324998202251
0.09459475843308039
0.09445954463163952
0.094326805706522
0.09419649041169102
0.09406854890666604
0.09394293270162056
0.09381959460525209
0.09369848867524355
0.093579570171165
0.09346279550970582
0.09334812222208776
0.09323550891355716
0.0931249152248443
0.09301630179548308
0.09290963022890002
0.09280486305918245
0.09270196371946364
0.09260089651181111
0.09250162657859118
0.09240411987520995
0.0923083431442005
0.09221426389059867
0.09212185035854237
0.09203107150908356
0.09194189699915924
0.09185429716169355
0.09176824298683157
0.09168370610427148
0.09160065876668913
0.09151907383428334
0.09143892476041812
0.09136018557842837
0.09128283088959507
0.09120683585234537
0.09113217617275829
0.09105882809643798
0.09098676840187545
0.0909159743954169
0.0908464239079774
0.09077809529370214
0.09071096743077664
0.0906450197246581
0.09058023211402513
0.09051658507980158
0.09045405965769875
0.09039263745478332
0.0903323006706633
0.09027303212400405
0.09021481528520112
0.09015763431621543
0.09010147411877623
0.09004632039233973
0.08999215970349385
0.0899389795688172
0.08988676855362808
0.0898355163895869
0.08978521411475275
0.08973585424053115
0.08968743095099385
0.08963994034139697
0.08959338070449976
0.08954775287566652
0.08950306065074973
0.08945931129496357
0.0894165161665553
0.08937469148726711
0.08933385930212674
0.08929404868764684
0.08925529728825637
0.08921765329766405
0.08918117804456532
0.08914594943217155
0.08911206657458302
0.0890796562248108
0.08904888182569187
0.08901995683183617
0.08899316483027928
0.08896889210089115
0.08894768418167942
0.08893035008314662
0.08891820121013247
0.08891349628740886
0.08892130325158365
0.08894938243167383
0.08906948586353791
0.08847403332237257
0.08996861346991746
0.9998344829485221
0.9827667223018097
0.909121310470977
0.8371149141278277
0.7710147441235874
0.7136952777476572
0.665201900763289
0.6242855578181152
0.5895125368907613
0.5596546279536698
0.5337520669260852
0.5110747284969595
0.4910666860229062
0.47329902849779887
0.4574348848889363
0.44320472768861574
0.4303891531034786
0.4188068154167901
0.40830585482455645
0.3987576954784992
0.3900524685223574
0.38209556647595894
0.3748049993436876
0.3681093294510412
0.36194603178052404
0.3562601727638588
0.35100333149900786
0.3461327084988435
0.34161038170474406
0.337402679767309
0.33347964991015017
0.3298146029754422
0.3263837221196894
0.3231657245018382
0.32014156746851163
0.3172941923894321
0.3146083005672873
0.312070156637137
0.30966741565110334
0.3073889706652474
0.30522481814483543
0.30316593890975213
0.30120419267442244
0.2993322245118617
0.29754338180125467
0.2958316404116032
0.29419153903732376
0.2926181207406082
0.29110688087399333
0.2896537206583576
0.28825490577919494
0.28690702943984164
0.28560697937610124
0.28435190839418373
0.28313920804401793
0.28196648508406374
0.28083154043253633
0.2797323503341937
0.27866704950195437
0.2776339160194819
0.27663135781438986
0.2756579005328186
0.27471217666461284
0.2737929157848913
0.2728989357924528
0.27202913503840326
0.271182485250006
0.2703580251650749
0.2695548548013086
0.2687721302932179
0.268009059236535
0.267264896486471
0.2665389403620378
0.26583052921372613
0.2651390383165831
0.2644638770546469
0.26380448636657966
0.26316033642545206
0.26253092452863286
0.2619157731762962
0.2613144283193959
0.2607264577600279
0.26015144968891524
0.2595890113463957
0.2590387677947689
0.25850036079112454
0.25797344775095504
0.25745770079388025
0.25695280586368996
0.2564584619158098
0.2559743801659234
0.2555002833941845
0.2550359053000395
0.2545809899031511
0.25413529098641213
0.25369857157738923
0.2532706034649811
0.2528511667483401
0.252440049415381
0.25203704694852086
0.25164196195547234
0.2512546038231296
0.2508747883927863
0.25050233765507945
0.25013707946315983
0.24977884726281813
0.2494274798383144
0.24908282107278962
0.2487447197222915
0.2484130292024662
0.2480876073870488
0.24776831641740502
0.24745502252237556
0.24714759584778662
0.246845910295003
0.24654984336796765
0.2462592760281888
0.24597409255722968
0.24569418042620803
0.24541943017192494
0.24514973527922992
0.24488499206924955
0.2446250995931616
0.2443699595312016
0.2441194760966052
0.24387355594423754
0.2436321080836292
0.24339504379622093
0.24316227655656808
0.24293372195732713
0.24270929763783985
0.24248892321612364
0.24227252022412804
0.24206001204610617
0.24185132385998154
0.24164638258157603
0.241445116811609
0.24124745678537587
0.24105333432501894
0.2408626827943394
0.24067543705612282
0.24049153343190063
0.24031090966419733
0.24013350488121016
0.23995925956399983
0.23978811551623572
0.23962001583655881
0.23945490489369278
0.2392927283044323
0.2391334329147088
0.23897696678396174
0.23882327917307736
0.23867232053624102
0.23852404251710624
0.23837839794977253
0.2382353408651561
0.23809482650341066
0.23795681133321755
0.2378212530789178
0.2376881107566218
0.23755734472065013
0.23742891672186645
0.23730278997979262
0.23717892927075757
0.2370573010347408
0.23693787350408982
0.2368206168579154
0.2367055034067273
0.23659250781285765
0.23648160735340035
0.23637278223393746
0.2362660159632159
0.236161295801421
0.23605861329780628
0.2359579649378143
0.2358593529251908
0.235762786132334
0.23566828126138742
0.2355758642738199
0.23548557216285596
0.23539745517519983
0.23531157961694404
0.23522803145425006
0.2351469209644277
0.23506838889263598
0.23499261461300713
0.23491982738579006
0.23485032172926018
0.23478447979839293
0.23472280316786037
0.23466596150396837
0.23461486884390947
0.23457078946240975
0.23453561607590892
0.23451180797893406
0.23450580835150422
0.23451204650109037
0.2346674242809504
0.23385688473738803
0.23564063399422888
1.0190395121721734
1.0492151976579474
1.0371159449499856
1.0088702997955559
0.9708806201393178
0.9298173289824123
0.8895817371904783
0.8519440945298615
0.8174996785551641
0.7862812994712507
0.7580831548216921
0.7326179797454164
0.7095884941751085
0.6887170242055746
0.6697554701686619
0.6524864982361611
0.6367211749052786
0.6222954708789021
0.6090666989689755
0.5969103006091823
0.5857170973653357
0.5753909968107657
0.56584709592536
0.5570101151700593
0.548813101101285
0.5411963448909677
0.5341064741168093
0.5274956840532844
0.5213210819876666
0.5155441238587517
0.5101301269929553
0.5050478461490996
0.5002691027132666
0.4957684589010315
0.4915229303773922
0.48751173190963787
0.48371605161100245
0.4801188500764852
0.47670468130339666
0.4734595327630801
0.4703706823735091
0.46742657043498254
0.4646166848492218
0.46193145815718417
0.4593621751121323
0.4569008896589324
0.45454035032284773
0.4522739331256074
0.45009558124588156
0.44799975072794984
0.44598136161814755
0.4440357539751013
0.44215864825834833
0.4403461096515553
0.43859451592242826
0.4369005284621857
0.4352610661837526
0.433673281990554
0.43213454155679965
0.43064240418658967
0.42919460554253824
0.4277890420559428
0.4264237568495287
0.42509692702084156
0.42380685214985225
0.42255194390805084
0.421330716658746
0.42014177894941596
0.4189838258069626
0.41785563175572915
0.41675604448620746
0.4156839791096815
0.4146384129405234
0.4136183807538485
0.41262297047147867
0.41165131923394194
0.41070260982055307
0.409776067383475
0.40887095646514454
0.407986578271544
0.4071222681766371
0.4062773934357673
0.40545135108813035
0.40464356603040724
0.4038534892454811
0.4030805961717936
0.40232438520036606
0.4015843762877847
0.40086010967464497
0.4001511447000136
0.39945705870336334
0.39877744600631965
0.3981119169672878
0.397460097102722
0.39682162626940143
0.3961961579025979
0.39558335830552555
0.3949829059859412
0.39439449103606933
0.3938178145524422
0.39325258809255453
0.39269853316548703
0.39215538075394113
0.391622870865343
0.3911007521098711
0.39058878130346825
0.3900867230940663
0.3895943496093653
0.38911144012470256
0.38863778074963046
0.38817316413193464
0.38771738917796994
0.3872702607881976
0.3868315896069851
0.3864011917857504
0.38597888875860326
0.3855645070296975
0.38515787797163
0.38475883763414986
0.38436722656261296
0.38398288962558164
0.3836056758510545
0.3832354382708102
0.3828720337724189
0.3825153229585031
0.38216517001281114
0.3818214425727678
0.3814840116081556
0.38115275130557413
0.38082753895840943
0.38050825486203305
0.3801947822139638
0.3798870070187676
0.3795848179974752
0.3792881065013211
0.37899676642963287
0.3787106941517003
0.3784297884325006
0.3781539503621542
0.3778830832889848
0.3776170927561582
0.3773558864417995
0.37709937410259003
0.376847467520792
0.37660008045476107
0.3763571285929929
0.37611852951179375
0.37588420263669453
0.3756540692077754
0.3754280522491243
0.3752060765427296
0.37498806860712613
0.3747739566812179
0.3745636707137655
0.3743571423591537
0.37415430498018126
0.37395509365872465
0.3737594452152518
0.3735672982384036
0.37337859312607247
0.37319327213969217
0.37301127947371476
0.37283256134260373
0.37265706608813093
0.37248474431030615
0.37231554902589703
0.3721494358592472
0.3719863632710212
0.3718262928316828
0.3716691895479126
0.37151502225202304
0.3713637640666304
0.3712153929598252
0.37106989240945354
0.37092725220036354
0.3707874693840137
0.370650549439744
0.37051650768489913
0.3703853710015673
0.3702571799571889
0.37013199144608355
0.3700098819762371
0.3698909518623298
0.3697753305070012
0.3696631833811534
0.36955472086356955
0.369450210554176
0.36934999267195956
0.36925450312733926
0.3691643015080262
0.3690801141184948
0.369002893700945
0.3689338461042942
0.368874762026095
0.3688267669100637
0.36879700412437844
0.3687609792687291
0.36887247656498345
0.3681683611078819
0.3692537764659338
1.013751924475536
1.052898993010374
1.0700233757981348
1.0728753024241997
1.0631233653921082
1.045126246011488
1.0225624141939875
0.9979350236952278
0.9728026988815804
0.9480864131631461
0.9243034136223084
0.9017218548016567
0.8804584303529038
0.8605392427529498
0.8419376234755518
0.8245975374715719
0.8084479513541609
0.7934115386406716
0.7794098502443509
0.7663662940720316
0.7542077691868799
0.7428654830361272
0.7322752796237721
0.7223776804702796
0.71311776166203
0.7044449417279299
0.6963127252547268
0.688678428944558
0.6815029057610644
0.6747502761251041
0.6683876710926109
0.6623849900258518
0.6567146738188909
0.6513514938744547
0.6462723565225111
0.6414561222816538
0.6368834392092961
0.6325365895140282
0.628399348580922
0.6244568555677648
0.6206954947541803
0.6171027868586124
0.6136672895757205
0.6103785066263483
0.6072268046527777
0.6042033373328245
0.6012999761268201
0.5985092471114513
0.5958242733932128
0.5932387226317448
0.5907467592389222
0.5883430008532755
0.5860224787207824
0.5837806016423867
0.5816131231758617
0.5795161118049508
0.5774859238120633
0.5755191786126442
0.5736127363294093
0.5717636774035668
0.5699692840573641
0.5682270234385333
0.5665345322921305
0.5648896030188899
0.563290170992025
0.5617343030158531
0.5602201868203648
0.558746121495471
0.5573105087775284
0.5559118451088217
0.5545487143979969
0.5532197814161246
0.5519237857691582
0.5506595363930387
0.5494259065228319
0.548221829091716
0.5470462925199412
0.5458983368575913
0.5447770502484127
0.5436815656851441
0.5426110580295739
0.5415647412731464
0.5405418660162262
0.5395417171462896
0.538563611697136
0.5376068968730092
0.536670948223007
0.5357551679526005
0.5348589833603018
0.5339818453886869
0.5331232272800076
0.5322826233275141
0.5314595477144866
0.5306535334336892
0.5298641312806571
0.5290909089148165
0.5283334499830158
0.5275913533005059
0.5268642320848788
0.5261517132388758
0.5254534366783354
0.5247690547018633
0.5240982313991376
0.5234406420950097
0.5227959728268009
0.5221639198524152
0.5215441891871355
0.5209364961670371
0.5203405650372388
0.519756128563311
0.519182927664259
0.5186207110656701
0.5180692349717247
0.5175282627548251
0.5169975646617554
0.5164769175353119
0.5159661045504406
0.515464914964013
0.5149731438773877
0.5144905920110273
0.5140170654904086
0.513552375642616
0.5130963388029658
0.5126487761311056
0.5122095134360594
0.5117783810097033
0.5113552134682298
0.5109398496011581
0.510532132227515
0.5101319080587687
0.5097390275682233
0.5093533448665181
0.5089747175829636
0.5086030067524295
0.5082380767075416
0.5078797949759604
0.5075280321825468
0.5071826619562315
0.5068435608414513
0.5065106082139821
0.5061836862010825
0.5058626796058727
0.505547475835912
0.5052379648359078
0.5049340390245831
0.504635593235735
0.5043425246636035
0.5040547328126624
0.503772119451982
0.5034945885744095
0.5032220463608513
0.50295440115006
0.5026915634143655
0.502433445741863
0.5021799628256937
0.5019310314612454
0.5016865705522342
0.5014465011267357
0.5012107463644448
0.5009792316366789
0.5007518845610268
0.5005286350728132
0.5003094155159168
0.5000941607558799
0.4998828083188729
0.4996752985607723
0.49947157487138455
0.4992715839197692
0.4990752759478121
0.4988826051205617
0.4986935299437763
0.49850801376111753
0.4983260253467341
0.4981475396114425
0.49797253844671846
0.49780101173330593
0.4976329585549438
0.497468388655845
0.4973073242145852
0.49714980198181413
0.49699587593242567
0.4968456204561016
0.49669913445208175
0.4965565461506398
0.49641801972215255
0.4962837625173089
0.49615403640989103
0.4960291679231755
0.4959095689099166
0.495795747705814
0.49568834288166214
0.495588142714856
0.4954960160368141
0.49541338459239476
0.4953395807158957
0.49528270789499873
0.49520684916706936
0.4952577141444654
0.4947189602450382
0.49532719206970716
1.008876624976178
1.0435229751884283
1.0691497665963936
1.0866988169523188
1.0945916170503833
1.0943694455853161
1.0881338454227154
1.077747985247715
1.0646570431578373
1.0499210703224282
1.0342981081807223
1.0183222670688752
1.002364641556679
0.9866783161428923
0.9714312034313863
0.956729996690926
0.942637655809213
0.9291861594210691
0.9163857784859671
0.9042317944448522
0.892709345977523
0.8817969111392673
0.8714687985420226
0.8616969212903091
0.8524520528803583
0.8437047092932274
0.835425761341147
0.8275868522207273
0.820160674275202
0.813121143950521
0.806443503184574
0.800104367773286
0.7940817377282489
0.788354980648478
0.7829047962296446
0.7777131679149122
0.7727633061334515
0.7680395864205114
0.7635274848564046
0.7592135126217086
0.7550851509846835
0.7511307876728285
0.7473396553034509
0.7437017723359708
0.7402078868462472
0.7368494232989107
0.7336184323991946
0.730507544034887
0.7275099232665246
0.7246192292861524
0.7218295772384654
0.7191355027804203
0.716531929244243
0.7140141372624997
0.7115777367112108
0.7092186408271871
0.7069330423577976
0.7047173916048873
0.7025683762293125
0.7004829026880133
0.6984580791815598
0.6964911999966937
0.6945797311350388
0.6927212971259172
0.6909136689280249
0.6891547528313192
0.6874425802768527
0.6857752985184842
0.6841511620561604
0.6825685247759268
0.6810258327370012
0.6795216175510133
0.6780544903029508
0.676623135967489
0.6752263082782619
0.6738628250110874
0.6725315636455191
0.6712314573721082
0.6699614914155252
0.6687206996463336
0.6675081614565176
0.6663229988761041
0.6651643739101875
0.6640314860775427
0.6629235701336584
0.6618398939625798
0.6607797566233492
0.6597424865381035
0.6587274398100758
0.6577339986607678
0.6567615699765459
0.655809583955789
0.6548774928484817
0.6539647697809011
0.6530709076586643
0.6521954181420009
0.6513378306876774
0.6504976916524509
0.6496745634533742
0.6488680237807186
0.6480776648595801
0.6473030927565949
0.6465439267285247
0.6457997986096619
0.6450703522353395
0.6443552428989766
0.6436541368403937
0.6429667107632
0.6422926513793017
0.6416316549787375
0.6409834270231587
0.6403476817613936
0.6397241418656873
0.6391125380872973
0.6385126089302139
0.6379241003418922
0.6373467654199299
0.6367803641337341
0.6362246630602504
0.6356794351329571
0.6351444594033085
0.6346195208139084
0.6341044099827615
0.6335989229979307
0.6331028612220768
0.6326160311062792
0.632138244012658
0.6316693160453145
0.63120906788916
0.6307573246562258
0.6303139157390679
0.629878674670902
0.6294514389921633
0.6290320501232036
0.6286203532428281
0.6282161971724239
0.6278194342654614
0.6274299203021565
0.6270475143891587
0.6266720788640774
0.6263034792047097
0.6259415839428748
0.6255862645828251
0.6252373955241777
0.6248948539893521
0.6245585199555065
0.6242282760910908
0.6239040076971369
0.62358560265347
0.6232729513700137
0.6229659467434501
0.6226644841196354
0.622368461262258
0.6220777783282636
0.6217923378506218
0.6215120447292087
0.6212368062307777
0.6209665319991903
0.6207011340771473
0.6204405269408575
0.6201846275494594
0.6199333554114007
0.6196866326703409
0.6194443842134653
0.619206537805573
0.6189730242530271
0.6187437776024677
0.6185187353799642
0.6182978388774321
0.6180810334940897
0.6178682691427395
0.6176595007316442
0.6174546887368679
0.6172537998796593
0.6170568079324122
0.6168636946697026
0.6166744510069759
0.6164890783373485
0.6163075901588213
0.616130013951187
0.6159563935459741
0.6157867917203391
0.6156212937814262
0.6154600109197699
0.6153030860345748
0.6151506969990014
0.6150030675067367
0.6148604654115086
0.6147232268639838
0.6145917305245902
0.6144664531976126
0.6143478830326238
0.6142365063995915
0.6141331337450495
0.614036043846741
0.6139523403058008
0.6138485523867152
0.6138313457573336
0.613463257026253
0.613711881234321
1.0060836809680804
1.0338197106866478
1.058830549180641
1.0806855693540798
1.0967711528307935
1.106932718404359
1.1118928869734166
1.1126158424565142
1.1100306740560153
1.1049353420176626
1.0979823380372367
1.0896934889617433
1.0804813152401795
1.0706692105431233
1.0605085933973135
1.0501930526141519
1.0398699261037665
1.0296497528832356
1.0196139623076867
1.0098210981708264
1.0003118272028804
0.9911129450445336
0.9822405622201517
0.973702625229188
0.9655009028731384
0.9576325454214829
0.9500913044308236
0.942868484074859
0.935953680645669
0.9293353552304873
0.9230012751468929
0.9169388521936322
0.9111353998108369
0.9055783265417231
0.9002552794913097