# vtk DataFile Version 3.0
jCFD simulation data
ASCII
DATASET UNSTRUCTURED_GRID
POINTS 8241 double
0.0 0.0 0.0
0.5 0.0 0.0
0.0 0.1 0.0
0.5 0.1 0.0
0.0025 0.0 0.0
0.005 0.0 0.0
0.0075 0.0 0.0
0.01 0.0 0.0
0.0125 0.0 0.0
0.015 0.0 0.0
0.0175 0.0 0.0
0.02 0.0 0.0
0.0225 0.0 0.0
0.025 0.0 0.0
0.0275 0.0 0.0
0.03 0.0 0.0
0.0325 0.0 0.0
0.035 0.0 0.0
0.0375 0.0 0.0
0.04 0.0 0.0
0.0425 0.0 0.0
0.045 0.0 0.0
0.0475 0.0 0.0
0.05 0.0 0.0
0.0525 0.0 0.0
0.055 0.0 0.0
0.0575 0.0 0.0
0.06 0.0 0.0
0.0625 0.0 0.0
0.065 0.0 0.0
0.0675 0.0 0.0
0.07 0.0 0.0
0.0725 0.0 0.0
0.075 0.0 0.0
0.0775 0.0 0.0
0.08 0.0 0.0
0.0825 0.0 0.0
0.085 0.0 0.0
0.08750000000000001 0.0 0.0
0.09 0.0 0.0
0.0925 0.0 0.0
0.095 0.0 0.0
0.0975 0.0 0.0
0.1 0.0 0.0
0.10250000000000001 0.0 0.0
0.105 0.0 0.0
0.1075 0.0 0.0
0.11 0.0 0.0
0.1125 0.0 0.0
0.115 0.0 0.0
0.11750000000000001 0.0 0.0
0.12 0.0 0.0
0.1225 0.0 0.0
0.125 0.0 0.0
0.1275 0.0 0.0
0.13 0.0 0.0
0.1325 0.0 0.0
0.135 0.0 0.0
0.1375 0.0 0.0
0.14 0.0 0.0
0.14250000000000002 0.0 0.0
0.145 0.0 0.0
0.1475 0.0 0.0
0.15 0.0 0.0
0.1525 0.0 0.0
0.155 0.0 0.0
0.1575 0.0 0.0
0.16 0.0 0.0
0.1625 0.0 0.0
0.165 0.0 0.0
0.1675 0.0 0.0
0.17 0.0 0.0
0.17250000000000001 0.0 0.0
0.17500000000000002 0.0 0.0
0.1775 0.0 0.0
0.18 0.0 0.0
0.1825 0.0 0.0
0.185 0.0 0.0
0.1875 0.0 0.0
0.19 0.0 0.0
0.1925 0.0 0.0
0.195 0.0 0.0
0.1975 0.0 0.0
0.2 0.0 0.0
0.2025 0.0 0.0
0.20500000000000002 0.0 0.0
0.20750000000000002 0.0 0.0
0.21 0.0 0.0
0.2125 0.0 0.0
0.215 0.0 0.0
0.2175 0.0 0.0
0.22 0.0 0.0
0.2225 0.0 0.0
0.225 0.0 0.0
0.2275 0.0 0.0
0.23 0.0 0.0
0.2325 0.0 0.0
0.23500000000000001 0.0 0.0
0.23750000000000002 0.0 0.0
0.24 0.0 0.0
0.2425 0.0 0.0
0.245 0.0 0.0
0.2475 0.0 0.0
0.25 0.0 0.0
0.2525 0.0 0.0
0.255 0.0 0.0
0.2575 0.0 0.0
0.26 0.0 0.0
0.2625 0.0 0.0
0.265 0.0 0.0
0.2675 0.0 0.0
0.27 0.0 0.0
0.2725 0.0 0.0
0.275 0.0 0.0
0.2775 0.0 0.0
0.28 0.0 0.0
0.28250000000000003 0.0 0.0
0.28500000000000003 0.0 0.0
0.28750000000000003 0.0 0.0
0.29 0.0 0.0
0.2925 0.0 0.0
0.295 0.0 0.0
0.2975 0.0 0.0
0.3 0.0 0.0
0.3025 0.0 0.0
0.305 0.0 0.0
0.3075 0.0 0.0
0.31 0.0 0.0
0.3125 0.0 0.0
0.315 0.0 0.0
0.3175 0.0 0.0
0.32 0.0 0.0
0.3225 0.0 0.0
0.325 0.0 0.0
0.3275 0.0 0.0
0.33 0.0 0.0
0.3325 0.0 0.0
0.335 0.0 0.0
0.3375 0.0 0.0
0.34 0.0 0.0
0.3425 0.0 0.0
0.34500000000000003 0.0 0.0
0.34750000000000003 0.0 0.0
0.35000000000000003 0.0 0.0
0.3525 0.0 0.0
0.355 0.0 0.0
0.3575 0.0 0.0
0.36 0.0 0.0
0.3625 0.0 0.0
0.365 0.0 0.0
0.3675 0.0 0.0
0.37 0.0 0.0
0.3725 0.0 0.0
0.375 0.0 0.0
0.3775 0.0 0.0
0.38 0.0 0.0
0.3825 0.0 0.0
0.385 0.0 0.0
0.3875 0.0 0.0
0.39 0.0 0.0
0.3925 0.0 0.0
0.395 0.0 0.0
0.3975 0.0 0.0
0.4 0.0 0.0
0.4025 0.0 0.0
0.405 0.0 0.0
0.40750000000000003 0.0 0.0
0.41000000000000003 0.0 0.0
0.41250000000000003 0.0 0.0
0.41500000000000004 0.0 0.0
0.4175 0.0 0.0
0.42 0.0 0.0
0.4225 0.0 0.0
0.425 0.0 0.0
0.4275 0.0 0.0
0.43 0.0 0.0
0.4325 0.0 0.0
0.435 0.0 0.0
0.4375 0.0 0.0
0.44 0.0 0.0
0.4425 0.0 0.0
0.445 0.0 0.0
0.4475 0.0 0.0
0.45 0.0 0.0
0.4525 0.0 0.0
0.455 0.0 0.0
0.4575 0.0 0.0
0.46 0.0 0.0
0.4625 0.0 0.0
0.465 0.0 0.0
0.4675 0.0 0.0
0.47000000000000003 0.0 0.0
0.47250000000000003 0.0 0.0
0.47500000000000003 0.0 0.0
0.47750000000000004 0.0 0.0
0.48 0.0 0.0
0.4825 0.0 0.0
0.485 0.0 0.0
0.4875 0.0 0.0
0.49 0.0 0.0
0.4925 0.0 0.0
0.495 0.0 0.0
0.4975 0.0 0.0
0.0025 0.1 0.0
0.005 0.1 0.0
0.0075 0.1 0.0
0.01 0.1 0.0
0.0125 0.1 0.0
0.015 0.1 0.0
0.0175 0.1 0.0
0.02 0.1 0.0
0.0225 0.1 0.0
0.025 0.1 0.0
0.0275 0.1 0.0
0.03 0.1 0.0
0.0325 0.1 0.0
0.035 0.1 0.0
0.0375 0.1 0.0
0.04 0.1 0.0
0.0425 0.1 0.0
0.045 0.1 0.0
0.0475 0.1 0.0
0.05 0.1 0.0
0.0525 0.1 0.0
0.055 0.1 0.0
0.0575 0.1 0.0
0.06 0.1 0.0
0.0625 0.1 0.0
0.065 0.1 0.0
0.0675 0.1 0.0
0.07 0.1 0.0
0.0725 0.1 0.0
0.075 0.1 0.0
0.0775 0.1 0.0
0.08 0.1 0.0
0.0825 0.1 0.0
0.085 0.1 0.0
0.08750000000000001 0.1 0.0
0.09 0.1 0.0
0.0925 0.1 0.0
0.095 0.1 0.0
0.0975 0.1 0.0
0.1 0.1 0.0
0.10250000000000001 0.1 0.0
0.105 0.1 0.0
0.1075 0.1 0.0
0.11 0.1 0.0
0.1125 0.1 0.0
0.115 0.1 0.0
0.11750000000000001 0.1 0.0
0.12 0.1 0.0
0.1225 0.1 0.0
0.125 0.1 0.0
0.1275 0.1 0.0
0.13 0.1 0.0
0.1325 0.1 0.0
0.135 0.1 0.0
0.1375 0.1 0.0
0.14 0.1 0.0
0.14250000000000002 0.1 0.0
0.145 0.1 0.0
0.1475 0.1 0.0
0.15 0.1 0.0
0.1525 0.1 0.0
0.155 0.1 0.0
0.1575 0.1 0.0
0.16 0.1 0.0
0.1625 0.1 0.0
0.165 0.1 0.0
0.1675 0.1 0.0
0.17 0.1 0.0
0.17250000000000001 0.1 0.0
0.17500000000000002 0.1 0.0
0.1775 0.1 0.0
0.18 0.1 0.0
0.1825 0.1 0.0
0.185 0.1 0.0
0.1875 0.1 0.0
0.19 0.1 0.0
0.1925 0.1 0.0
0.195 0.1 0.0
0.1975 0.1 0.0
0.2 0.1 0.0
0.2025 0.1 0.0
0.20500000000000002 0.1 0.0
0.20750000000000002 0.1 0.0
0.21 0.1 0.0
0.2125 0.1 0.0
0.215 0.1 0.0
0.2175 0.1 0.0
0.22 0.1 0.0
0.2225 0.1 0.0
0.225 0.1 0.0
0.2275 0.1 0.0
0.23 0.1 0.0
0.2325 0.1 0.0
0.23500000000000001 0.1 0.0
0.23750000000000002 0.1 0.0
0.24 0.1 0.0
0.2425 0.1 0.0
0.245 0.1 0.0
0.2475 0.1 0.0
0.25 0.1 0.0
0.2525 0.1 0.0
0.255 0.1 0.0
0.2575 0.1 0.0
0.26 0.1 0.0
0.2625 0.1 0.0
0.265 0.1 0.0
0.2675 0.1 0.0
0.27 0.1 0.0
0.2725 0.1 0.0
0.275 0.1 0.0
0.2775 0.1 0.0
0.28 0.1 0.0
0.28250000000000003 0.1 0.0
0.28500000000000003 0.1 0.0
0.28750000000000003 0.1 0.0
0.29 0.1 0.0
0.2925 0.1 0.0
0.295 0.1 0.0
0.2975 0.1 0.0
0.3 0.1 0.0
0.3025 0.1 0.0
0.305 0.1 0.0
0.3075 0.1 0.0
0.31 0.1 0.0
0.3125 0.1 0.0
0.315 0.1 0.0
0.3175 0.1 0.0
0.32 0.1 0.0
0.3225 0.1 0.0
0.325 0.1 0.0
0.3275 0.1 0.0
0.33 0.1 0.0
0.3325 0.1 0.0
0.335 0.1 0.0
0.3375 0.1 0.0
0.34 0.1 0.0
0.3425 0.1 0.0
0.34500000000000003 0.1 0.0
0.34750000000000003 0.1 0.0
0.35000000000000003 0.1 0.0
0.3525 0.1 0.0
0.355 0.1 0.0
0.3575 0.1 0.0
0.36 0.1 0.0
0.3625 0.1 0.0
0.365 0.1 0.0
0.3675 0.1 0.0
0.37 0.1 0.0
0.3725 0.1 0.0
0.375 0.1 0.0
0.3775 0.1 0.0
0.38 0.1 0.0
0.3825 0.1 0.0
0.385 0.1 0.0
0.3875 0.1 0.0
0.39 0.1 0.0
0.3925 0.1 0.0
0.395 0.1 0.0
0.3975 0.1 0.0
0.4 0.1 0.0
0.4025 0.1 0.0
0.405 0.1 0.0
0.40750000000000003 0.1 0.0
0.41000000000000003 0.1 0.0
0.41250000000000003 0.1 0.0
0.41500000000000004 0.1 0.0
0.4175 0.1 0.0
0.42 0.1 0.0
0.4225 0.1 0.0
0.425 0.1 0.0
0.4275 0.1 0.0
0.43 0.1 0.0
0.4325 0.1 0.0
0.435 0.1 0.0
0.4375 0.1 0.0
0.44 0.1 0.0
0.4425 0.1 0.0
0.445 0.1 0.0
0.4475 0.1 0.0
0.45 0.1 0.0
0.4525 0.1 0.0
0.455 0.1 0.0
0.4575 0.1 0.0
0.46 0.1 0.0
0.4625 0.1 0.0
0.465 0.1 0.0
0.4675 0.1 0.0
0.47000000000000003 0.1 0.0
0.47250000000000003 0.1 0.0
0.47500000000000003 0.1 0.0
0.47750000000000004 0.1 0.0
0.48 0.1 0.0
0.4825 0.1 0.0
0.485 0.1 0.0
0.4875 0.1 0.0
0.49 0.1 0.0
0.4925 0.1 0.0
0.495 0.1 0.0
0.4975 0.1 0.0
0.0 0.0025 0.0
0.0 0.005 0.0
0.0 0.0075 0.0
0.0 0.01 0.0
0.0 0.0125 0.0
0.0 0.015 0.0
0.0 0.0175 0.0
0.0 0.02 0.0
0.0 0.0225 0.0
0.0 0.025 0.0
0.0 0.0275 0.0
0.0 0.03 0.0
0.0 0.0325 0.0
0.0 0.035 0.0
0.0 0.0375 0.0
0.0 0.04 0.0
0.0 0.0425 0.0
0.0 0.045 0.0
0.0 0.0475 0.0
0.0 0.05 0.0
0.0 0.0525 0.0
0.0 0.055 0.0
0.0 0.0575 0.0
0.0 0.06 0.0
0.0 0.0625 0.0
0.0 0.065 0.0
0.0 0.0675 0.0
0.0 0.07 0.0
0.0 0.0725 0.0
0.0 0.075 0.0
0.0 0.0775 0.0
0.0 0.08 0.0
0.0 0.0825 0.0
0.0 0.085 0.0
0.0 0.08750000000000001 0.0
0.0 0.09 0.0
0.0 0.0925 0.0
0.0 0.095 0.0
0.0 0.0975 0.0
0.5 0.0025 0.0
0.5 0.005 0.0
0.5 0.0075 0.0
0.5 0.01 0.0
0.5 0.0125 0.0
0.5 0.015 0.0
0.5 0.0175 0.0
0.5 0.02 0.0
0.5 0.0225 0.0
0.5 0.025 0.0
0.5 0.0275 0.0
0.5 0.03 0.0
0.5 0.0325 0.0
0.5 0.035 0.0
0.5 0.0375 0.0
0.5 0.04 0.0
0.5 0.0425 0.0
0.5 0.045 0.0
0.5 0.0475 0.0
0.5 0.05 0.0
0.5 0.0525 0.0
0.5 0.055 0.0
0.5 0.0575 0.0
0.5 0.06 0.0
0.5 0.0625 0.0
0.5 0.065 0.0
0.5 0.0675 0.0
0.5 0.07 0.0
0.5 0.0725 0.0
0.5 0.075 0.0
0.5 0.0775 0.0
0.5 0.08 0.0
0.5 0.0825 0.0
0.5 0.085 0.0
0.5 0.08750000000000001 0.0
0.5 0.09 0.0
0.5 0.0925 0.0
0.5 0.095 0.0
0.5 0.0975 0.0
0.0025 0.0025 0.0
0.005 0.0025 0.0
0.0075 0.0025 0.0
0.01 0.0025 0.0
0.0125 0.0025 0.0
0.015 0.0025 0.0
0.0175 0.0025 0.0
0.02 0.0025 0.0
0.0225 0.0025 0.0
0.025 0.0025 0.0
0.0275 0.0025 0.0
0.03 0.0025 0.0
0.0325 0.0025 0.0
0.035 0.0025 0.0
0.0375 0.0025 0.0
0.04 0.0025 0.0
0.0425 0.0025 0.0
0.045 0.0025 0.0
0.0475 0.0025 0.0
0.05 0.0025 0.0
0.0525 0.0025 0.0
0.055 0.0025 0.0
0.0575 0.0025 0.0
0.06 0.0025 0.0
0.0625 0.0025 0.0
0.065 0.0025 0.0
0.0675 0.0025 0.0
0.07 0.0025 0.0
0.0725 0.0025 0.0
0.075 0.0025 0.0
0.0775 0.0025 0.0
0.08 0.0025 0.0
0.0825 0.0025 0.0
0.085 0.0025 0.0
0.08750000000000001 0.0025 0.0
0.09 0.0025 0.0
0.0925 0.0025 0.0
0.095 0.0025 0.0
0.0975 0.0025 0.0
0.1 0.0025 0.0
0.10250000000000001 0.0025 0.0
0.105 0.0025 0.0
0.1075 0.0025 0.0
0.11 0.0025 0.0
0.1125 0.0025 0.0
0.115 0.0025 0.0
0.11750000000000001 0.0025 0.0
0.12 0.0025 0.0
0.1225 0.0025 0.0
0.125 0.0025 0.0
0.1275 0.0025 0.0
0.13 0.0025 0.0
0.1325 0.0025 0.0
0.135 0.0025 0.0
0.1375 0.0025 0.0
0.14 0.0025 0.0
0.14250000000000002 0.0025 0.0
0.145 0.0025 0.0
0.1475 0.0025 0.0
0.15 0.0025 0.0
0.1525 0.0025 0.0
0.155 0.0025 0.0
0.1575 0.0025 0.0
0.16 0.0025 0.0
0.1625 0.0025 0.0
0.165 0.0025 0.0
0.1675 0.0025 0.0
0.17 0.0025 0.0
0.17250000000000001 0.0025 0.0
0.17500000000000002 0.0025 0.0
0.1775 0.0025 0.0
0.18 0.0025 0.0
0.1825 0.0025 0.0
0.185 0.0025 0.0
0.1875 0.0025 0.0
0.19 0.0025 0.0
0.1925 0.0025 0.0
0.195 0.0025 0.0
0.1975 0.0025 0.0
0.2 0.0025 0.0
0.2025 0.0025 0.0
0.20500000000000002 0.0025 0.0
0.20750000000000002 0.0025 0.0
0.21 0.0025 0.0
0.2125 0.0025 0.0
0.215 0.0025 0.0
0.2175 0.0025 0.0
0.22 0.0025 0.0
0.2225 0.0025 0.0
0.225 0.0025 0.0
0.2275 0.0025 0.0
0.23 0.0025 0.0
0.2325 0.0025 0.0
0.23500000000000001 0.0025 0.0
0.23750000000000002 0.0025 0.0
0.24 0.0025 0.0
0.2425 0.0025 0.0
0.245 0.0025 0.0
0.2475 0.0025 0.0
0.25 0.0025 0.0
0.2525 0.0025 0.0
0.255 0.0025 0.0
0.2575 0.0025 0.0
0.26 0.0025 0.0
0.2625 0.0025 0.0
0.265 0.0025 0.0
0.2675 0.0025 0.0
0.27 0.0025 0.0
0.2725 0.0025 0.0
0.275 0.0025 0.0
0.2775 0.0025 0.0
0.28 0.0025 0.0
0.28250000000000003 0.0025 0.0
0.28500000000000003 0.0025 0.0
0.28750000000000003 0.0025 0.0
0.29 0.0025 0.0
0.2925 0.0025 0.0
0.295 0.0025 0.0
0.2975 0.0025 0.0
0.3 0.0025 0.0
0.3025 0.0025 0.0
0.305 0.0025 0.0
0.3075 0.0025 0.0
0.31 0.0025 0.0
0.3125 0.0025 0.0
0.315 0.0025 0.0
0.3175 0.0025 0.0
0.32 0.0025 0.0
0.3225 0.0025 0.0
[...]
CELL_DATA 8000
SCALARS phi float 1
LOOKUP_TABLE CellColors
0.35233467337973706
0.20447618108653345
0.13968443921724674
0.10947265709915774
0.09284723299440839
0.08215433100159486
0.07451344183083453
0.06868366860720086
0.06404062947183271
0.06022836130617378
0.05702543392617459
0.05428543166006418
0.05190703140542645
0.04981754618359154
0.047963269529348464
0.0463035238423107
0.04480684269959728
0.043448438972797106
0.04220847731185054
0.04107086600659652
0.04002239337158287
0.03905209827647685
0.03815080324849297
0.03731076231148632
0.03652539112579396
0.03578905732292761
0.0350969154091566
0.03444477484529584
0.03382899329956018
0.033246389519461905
0.03269417161292813
0.032169877461906575
0.0316713250237611
0.031196570736107838
0.030743874376972048
0.030311669443386712
0.029898538550138805
0.029503192875998688
0.029124454735960294
0.02876124317700786
0.028412562350707164
0.02807749177855146
0.027755178169656863
0.027444828982180987
0.027145707278992345
0.02685712726422945
0.026578450571966856
0.02630908332515031
0.026048473553553067
0.025796108786762684
0.025551513862465514
0.025314248897384765
0.025083907342560354
0.02486011398497016
0.024642522865421766
0.024430815285599018
0.024224697829015953
0.024023900265406323
0.023828173536279033
0.023637287773086452
0.02345103025939315
0.02326920373317794
0.023091624795680915
0.022918121899703523
0.022748533829068354
0.022582709075000332
0.02242050452421034
0.02226178356115058
0.02210641572298585
0.021954277033741244
0.02180524885215382
0.02165921629143325
0.021516068857750332
0.021375701302367656
0.021238013006145973
0.021102906344804807
0.020970287675137204
0.020840068552747972
0.020712165355507548
0.0205864979244754
0.020462990354042507
0.020341572008927798
0.02022217626808419
0.020104740511498215
0.01998920770325612
0.019875525373911396
0.019763643702288884
0.01965351702669336
0.019545105005997963
0.019438370327595135
0.019333277965840487
0.01922979696124525
0.019127899834151876
0.019027560773532893
0.01892875612691873
0.018831464957553407
0.01873566806999929
0.018641347483649994
0.018548486529047767
0.018457069774571767
0.018367082837893175
0.018278511811104247
0.01819134310748628
0.018105564014527946
0.018021162101867657
0.01793812446688258
0.017856438751536093
0.017776093214261535
0.017697075189771948
0.017619371707463465
0.017542970905633653
0.017467860618904332
0.017394027422021615
0.01732145828007271
0.017250140883225674
0.01718006212669608
0.01711120842250241
0.017043566289041738
0.01697712214737209
0.016911862240176056
0.01684777237076707
0.016784838151313267
0.016723044903936012
0.01666237753626504
0.01660282070260564
0.01654435853462571
0.016486974741701046
0.016430652540214332
0.01637537450441672
0.016321122601639017
0.016267878009357584
0.016215621044392888
0.016164331020614858
0.016113986088526547
0.016064563067181774
0.016016037251367823
0.01596838222358642
0.015921569640563727
0.01587556908281342
0.015830347884979414
0.015785871071676782
0.015742101360930693
0.01569899926952322
0.01565652341691367
0.015614630946894914
0.015573278204422595
0.015532421623330177
0.015492018791814997
0.015452029788419508
0.015412418594023449
0.015373154593691745
0.01533421407372183
0.015295581442139893
0.015257250199860862
0.015219223334747832
0.015181513020375213
0.01514413956882248
0.015107129361567053
0.015070511940212281
0.015034316188259627
0.01499856577802602
0.014963274248709378
0.014928439889295658
0.01489404099743386
0.01486003186526985
0.014826339915953834
0.014792864442136244
0.014759477112648746
0.014726024475510783
0.014692332388253052
0.014658212190847683
0.014623468308689352
0.014587906772884685
0.014551344141643163
0.014513616206611606
0.014474585920148332
0.01443415004596984
0.014392244124443817
0.014348845507180996
0.014303974343726837
0.01425769255767524
0.014210100981404015
0.014161334920223489
0.014111558496172403
0.01406095817067687
0.014009735869063336
0.013958102145044716
0.013906269850236045
0.013854448840751845
0.013802842411920068
0.013751646486737127
0.01370105317408024
0.013651261203772152
0.013602496661739155
0.013555046822230968
0.013509301699745381
0.013465761097133756
0.013424825099991848
0.013385593872402887
0.01335686949126875
0.478285635507977
0.41055317392062307
0.34918825703574313
0.3015649749684194
0.26612013739729085
0.23956537088070046
0.21915947235676858
0.20301219888366728
0.18988553502082484
0.17896749188320948
0.1697130719026511
0.16174535931363473
0.15479574382327171
0.14866747297927124
0.14321288758722306
0.1383187904829604
0.13389677263977062
0.1298766474669786
0.1262018886975974
0.12282639292488558
0.1197121375665787
0.11682745656323655
0.11414575033315694
0.11164450569748663
0.10930454001426416
0.10710941017570494
0.10504494467183371
0.10309886815082281
0.10126049636879313
0.09952048611928277
0.0978706285961572
0.09630367716250539
0.09481320314100103
0.09339347483885269
0.09203935551331092
0.09074621720326975
0.08950986871231409
0.08832649554407099
0.08719260925428476
0.08610500529257614
0.08506072882704226
0.0840570465523078
0.08309142301228385
0.08216150166202116
0.08126508991704152
0.08040014638004743
0.07956477002307259
0.0787571916293052
0.07797576638028696
0.07721896680098096
0.07648537640591732
0.07577368385132793
0.07508267705654473
0.07441123729445037
0.0737583332187198
0.07312301481742939
0.0725044074346301
0.07190170566394238
0.0713141671818405
0.0707411068619388
0.07018189095066922
0.06963593149476677
0.06910268145578753
0.06858162968356608
0.0680722959422122
0.06757422772774156
0.06708699754734455
0.06661019856747509
0.06614344157410523
0.0656863551271994
0.06523858427815017
0.064799786900483
0.06436963277975252
0.06394780611873474
0.0635340049313132
0.06312793837414674
0.06272932668325665
0.0623379044579718
0.061953420414597685
0.06157563495713113
0.06120432130606924
0.06083926744340447
0.06048027455209246
0.060127155882531244
0.059779739484843275
0.059437867597891846
0.0591013925392846
0.058770178063652735
0.058444102431112165
0.05812305449472677
0.05780693046164353
0.05749563724621984
0.05718909245067481
0.056887219536162124
0.05658994788434624
0.05629721491360348
0.05600896347514819
0.05572513972050556
0.05544569411857463
0.055170580918153744
0.05489975666074637
0.05463317991501851
0.05437081077652347
0.05411261062627856
0.05385854202764509
0.0536085674658859
0.05336264953832051
0.05312075206133627
0.05288283824552161
0.052648869843749745
0.05241880979849
0.052192621654629685
0.051970266554545716
0.051751705054206405
0.051536899270647925
0.051325810588649566
0.05111839835209687
0.05091462190220704
0.05071444086633789
0.05051781371696603
0.05032469802123735
0.05013505049237546
0.049948827266182744
0.04976598316370126
0.049586471959985466
0.0494102463647964
0.049237257379019815
0.04906745474627095
0.04890078633247091
0.04873719801949011
0.04857663352778431
0.048419033885978624
0.04826433719076313
0.048112478047231115
0.04796338709393387
0.04781699038716023
0.047673208853358594
0.047531957644069346
0.04739314559931919
0.04725667483569219
0.0471224403917113
0.046990330312422876
0.046860225903269215
0.046732002554254
0.046605531110312175
0.04648067974068818
0.04635731669342857
0.04623531353685564
0.04611454907396166
0.04599491384835613
0.04587631461271543
0.04575867896000226
0.04564195928781434
0.04552613563625089
0.04541121724813607
0.04529724170159352
0.045184271784694335
0.045072389517082916
0.04496168710841441
0.044852255541296834
0.04474417061183274
0.04463747774060101
0.04453217641906596
0.04442820537160621
0.04432543022814967
0.04422363455783376
0.04412251575512283
0.04402168653796865
0.04392068237463901
0.04381897501470807
0.04371599131860281
0.04361113649336646
0.04350382022241333
0.04339348395284652
0.043279627590011444
0.04316183374844794
0.043039788079366335
0.04291329442789362
0.042782284032733195
0.042646818463574175
0.04250708639560193
0.042363394758180364
0.042216155104806086
0.04206586627644198
0.041913094578657724
0.041758452758490744
0.04160257908714524
0.041446117908337896
0.04128970317895225
0.041133946946606416
0.04097943564476258
0.04082673890280137
0.04067643865845257
0.040529190985206694
0.04038583801068751
0.04024758647262308
0.04011624217885914
0.03999437697053981
0.03988482558633005
0.03980968836302946
0.49732887429906064
0.4772676245729078
0.448907599804577
0.41826354327055365
0.38895554977023106
0.3625661682330883
0.33946331983536215
0.3194437885387008
0.30210488791023543
0.28702084530555355
0.2738109500213768
0.262156948949001
0.2518001534713707
0.24253225656396596
0.23418551369223334
0.22662419244529639
0.21973768149943573
0.21343511678890534
0.20764124500443684
0.20229324866094564
0.19733830248004136
0.19273168153468886
0.18843528530025916
0.18441647556313942
0.18064715206639767
0.1771030098224711
0.17376293634680398
0.17060851717051248
0.16762362626935387
0.16479408435893173
0.16210737180911325
0.15955238584749623
0.15711923472288042
0.15479906325032552
0.15258390454393664
0.15046655405401957
0.14844046352993703
0.14649965209143082
0.1446386313424644
0.1428523431157682
0.14113610875508265
0.1394855873845862
0.1378967413277447
0.1363658084648473
0.1348892802376253
0.13346388318254884
0.1320865635563516
0.13075447493353287
0.12946496735878452
0.12821557721827173
0.12700401796275942
0.12582817124797646
0.1246860779901508
0.12357592929917169
0.12249605712978724
0.12144492474657774
0.1204211171663082
0.11942333127828454
0.11845036592194613
0.11750111239003579
0.11657454493532327
0.11566971161747533
0.11478572621955875
0.11392176025035579
0.11307703513717159
0.11225081649702193
0.11144240923174875
0.11065115154066363
0.10987641059945356
0.10911758105770031
0.10837408253285812
0.10764535598789807
0.10693086307698366
0.10623008712707252
0.10554253207107668
0.10486772065181901
0.10420519586703303
0.10355452293366553
0.10291528818902834
0.10228709790798318
0.10166958056246765
0.10106238873617789
0.1004651961568766
0.09987769689078921
0.09929960881796707
0.09873067254508654
0.09817064673257435
0.09761930974367335
0.09707646207968972
0.09654192132887947
0.09601551914437952
0.09549710452489878
0.09498654232908212
0.09448370798873691
0.09398848790341273
0.09350078043331997
0.09302049227680367
0.09254753665185517
0.0920818337975715
0.09162330933988032
0.091171892856124
0.0907275174775652
0.09029011858234139
0.08985963349635369
0.0894360013217375
0.0890191611348224
0.08860905229250328
0.08820561547611289
0.08780879031002195
0.08741851493761267
0.08703472882227811
0.0866573712148857
0.08628637855907435
0.08592168719163507
0.08556323457374425
0.08521095616353416
0.08486478552151559
0.08452465654097481
0.08419050234576755
0.08386225418029736
0.08353984214202888
0.08322319531985713
0.08291224070104602
0.08260690426086567
0.08230710930820513
0.08201277770361624
0.081723828760323
0.08144017902959438
0.08116174260569917
0.08088842992354532
0.08062014792568858
0.08035679922595948
0.08009828144538622
0.07984448653632044
0.0795952998153687
0.07935059903725011
0.07911025330977828
0.07887412217311635
0.0786420544567416
0.07841388763779657
0.07818944719645295
0.07796854649613902
0.07775098736326512
0.07753656112052912
0.07732505092951195
0.07711623489857061
0.07690989044457983
0.076705800067046
0.07650375777484629
0.07630357683306242
0.07610509779639431
0.07590819622239561
0.07571279012550418
0.07551884510828354
0.07532637725885782
0.07513545257499041
0.0749461815660288
0.07475870968350838
0.07457320207121776
0.07438982379314596
0.07420871625502427
0.07402997045848415
0.07385360007474241
0.07367951544380068
0.07350750149522058
0.07333720199287327
0.07316811160071421
0.07299957805903848
0.07283081464332797
0.07266092314126474
0.07248892638330512
0.072313808252232
0.07213455893765637
0.07195022216130964
0.07175994133575254
0.07156300152181398
0.07135886443341521
0.07114719448799334
0.0709278744580203
0.07070101024709312
0.07046692503583304
0.07022614372398035
0.06997936919386366
0.0697274522736679
0.06947135749591678
0.06921212684649242
0.0689508436841377
0.0686885990074904
0.06842646241875845
0.06816546067167596
0.06790656798408097
0.0676507151170122
0.0673988295925064
0.06715192896611814
0.06691130465724597
0.06667885530589387
0.06645764771918017
0.06625276930077774
0.06607229416106021
0.0659503791786791
0.49976947554656004
0.4947835711449483
0.484817745675363
0.47094438307193826
0.4546829042943864
0.4373984892544387
0.4200882381871789
0.40338020410152037
0.38761471125907254
0.3729371001568801
0.35937348262156277
0.34688375530314125
0.33539528512950306
0.32482281973280763
0.31507950456777006
0.3060825236353422
0.29775564934644916
0.29003009551514414
0.2828444873163444
0.2761444070380265
0.26988176569131805
0.264014131502773
0.2585040799482243
0.25331859370506815
0.24842852201885632
0.24380809979449516
0.23943452240057683
0.2352875705070264
0.23134927933808433
0.22760364731632332
0.22403637946218555
0.22063466157781444
0.21738696236156219
0.21428286090245685
0.21131289674432924
0.2084684403176751
0.2057415822894925
0.2031250398730889
0.2006120777983752
0.19819644259689245
0.19587230898605548
0.1936342361531521
0.1914771321757194
0.18939622583866925
0.18738704442995602
0.18544539562555407
0.18356735267759314
0.1817492423533199
0.17998763434900633
0.1782793313347362
0.17662135942067697
0.17501095859709584
0.17344557274907768
0.17192283911041373
0.17044057704294113
0.168996776320131
0.16758958503186502
0.1662172969369339
0.16487833867595536
0.16357125730697622
0.16229470786161776
0.16104744126513929
0.15982829337342772
0.15863617457379092
0.15747005986228838
0.15632898062214423
0.15521201770331297
0.1541182947125537
0.153046972617444
0.1519972462643042
0.15096834131195208
0.14995951153341286
0.14897003760397312
0.1479992267702688
0.14704641223910128
0.14611095313675923
0.1451922355625296
0.14428967358683645
0.14340270910102612
0.14253081195856593
0.1416734823353407
0.14083025142292185
0.14000067928582574
0.1391843548681128
0.13838089870433676
0.13758996132550252
0.13681121952847888
0.1360443774035997
0.13528916716357997
0.13454534466788862
0.13381268695021759
0.13309099361333337
0.13238008442843868
0.13167979499323104
0.13098997634394327
0.1303104943001502
0.12964122603346337
0.1289820583152438
0.12833288684727606
0.12769361419428588
0.127064148352692
0.12644440182824448
0.1258342900768934
0.1252337309390611
0.12464264403501378
0.12406094920517792
0.12348856662454004
0.12292541704615773
0.1223714200110525
0.12182649390838152
0.1212905574630066
0.12076352824285103
0.12024532160589513
0.1197358526393099
0.11923503597612221
0.11874278397307093
0.11825900768643646
0.1177836175919881
0.11731652219604613
0.11685762815263799
0.11640684058093005
0.11596406238296507
0.11552919423989104
0.11510213434961324
0.11468277840803352
0.11427101844916038
0.11386674429561428
0.1134698411937932
0.11308019082062418
0.11269767039668277
0.1123221515956127
0.11195350055695083
0.11159157632261962
0.11123623008464996
0.11088730380319729
0.11054462891699136
0.1102080247004908
0.10987729689447978
0.1095522361976974
0.10923261686020812
0.10891819606551237
0.10860871323563004
0.1083038907655814
0.10800343543240695
0.1077070411233062
0.10741439353862695
0.10712517593162993
0.10683907729896272
0.10655580201310144
0.10627508048137711
0.10599668155523063
0.10572042402270691
0.1054461875922732
0.10517392189386551
0.10490365079688367
0.10463547288870491
0.10436955470952805
0.10410611693203316
0.10384541356688923
0.1035877027243863
0.10333321237700191
0.10308210115819705
0.10283441761329461
0.10259006183939885
0.10234875150435926
0.1021099976009918
0.10187309186258675
0.1016371085281553
0.10140092220909372
0.10116324090334484
0.10092265359438163
0.10067768911717725
0.10042688267384925
0.10016884558638321
0.09990233320602376
0.09962630666925644
0.09933998422091458
0.09904287913876644
0.09873482230273174
0.09841596859903108
0.09808678771959878
0.09774804078084515
0.09740074504704435
0.09704612961360315
0.09668558513269031
0.09632061073966998
0.09595276128022538
0.09558359778434003
0.09521464415941126
0.09484735356518773
0.09448308929297379
0.09412312821980734
0.0937687020169074
0.09342110539760329
0.0930819282466522
0.0927535196734229
0.09243988026392144
0.09214831154389447
0.09189216670201666
0.09171818720891825
0.4999953283115698
0.4988688854863654
0.4958378622234722
0.4906265059561897
0.48338378282648586
0.4745013918194383
0.46445361782842054
0.4536936946922316
0.4426023894078131
0.4314726481892887
0.4205144851337863
0.40986869001843645
0.3996225320336708
0.389824076673828
0.38049386523565676
0.3716338323168631
0.3632338243670396
0.3552762209625004
0.3477391360530092
0.3405985925776999
0.3338299711096573
0.3274089522713688
0.32131210918765807
0.31551725931335517
0.31000365150347614
0.30475204092865366
0.2997446884154519
0.29496530980645236
0.2903989934582586
0.2860320988551937
0.28185214563145794
0.27784769978243357
0.27400826210097967
0.27032416236704665
0.2667864615091037
0.26338686324614624
0.2601176362868272
0.2569715472659347
0.2539418039196679
0.2510220081171216
0.24820611817896274
0.2454884191803237
0.2428634999623587
0.2403262360222901
0.2378717770861236
0.2354955378854957
0.23319319122024143
0.23096066258490106
0.2287941253361332
0.22668999562503206
0.2246449267195091
0.22265580234829446
0.2207197287838136
0.21883402554051878
0.21699621469035957
0.21520400904253084
0.21345529935744043
0.21174814062348055
0.21008073786456005
0.208451431966868
0.20685868547145178
0.2053010686609101
0.20377724664663258
0.20228596734911902
0.20082605022034555
0.19939637639790234
0.19799588045945588
0.19662354323070794
0.1952783857867974
0.19395946503102698
0.1926658705358382
0.19139672228361707
0.1901511693590967
0.1889283895704782
0.1877275896887955
0.1865480059747064
0.18538890524789262
0.1842495864112314
0.18312938131269818
0.18202765563003223
0.18094381053469527
0.17987728372468945
0.17882754858406907
0.17779411453700225
0.17677652832409652
0.17577437264313914
0.17478726360186012
0.17381485084020212
0.17285681706436823
0.1719128744060822
0.17098276205138171
0.17006624582611507
0.1691631154528932
0.16827318092910526
0.16739627108752506
0.16653223179116153
0.16568092277525942
0.1648422155949867
0.1640159920406452
0.16320214187811094
0.16240056116732696
0.16161115088749808
0.16083381531855953
0.16006846109756323
0.15931499628210347
0.15857332909549932
0.15784336767426582
0.15712501977940618
0.15641819168398055
0.15572278823823818
0.15503871336546796
0.15436586915359302
0.1537041556260563
0.15305347159771845
0.1524137141914555
0.15178477827193354
0.15116655709367277
0.15055894201064537
0.1499618218112845
0.14937508309709857
0.14879860999976846
0.14823228343418351
0.14767598158460665
0.14712957877325014
0.1465929463694621
0.1460659509273575
0.14554845495573332
0.14504031683441024
0.14454138853252715
0.14405151729484025
0.1435705431336446
0.14309829857783857
0.142634607634254
0.142179283965715
0.141732129591223
0.1412929329160863
0.14086146688008758
0.14043748658580377
0.14002072773717716
0.13961090431877018
0.1392077074554123
0.13881080471236626
0.13841984001245966
0.138034435786675
0.13765419580733387
0.13727871093484542
0.13690756698087628
0.13654035450830088
0.1361766822772165
0.13581619150681923
0.13545857215965776
0.13510358018954718
0.13475105215935954
0.13440091892296283
0.1340532134555618
0.13370807176217966
0.1333657266693453
0.13302648963427555
0.13269072369697799
0.1323588053374329
0.13203107684533408
0.13170779385199735
0.13138906830669428
0.13107481467554757
0.13076470264166104
0.1304581211552275
0.13015416011247474
0.1298516107683183
0.12954898862168104
0.12924457794000768
0.12893649581189318
0.12862277269609726
0.1283014431997109
0.12797064151665002
0.12762869437584062
0.12727420515515286
0.12690612373593435
0.1265237975706535
0.1261270016430365
0.12571594625174756
0.12529126341837055
0.12485397417388897
0.12440543987570528
0.1239473015333238
0.12348141143812182
0.1230097613116473
0.12253441102470115
0.12205742163368126
0.12158079620854541
0.12110643212937812
0.12063608974469954
0.12017138536122343
0.11971382415469872
0.1192649058109962
0.11882637305170816
0.11840075435875834
0.11799252191559621
0.11761051884278352
0.11727274894574358