# vtk DataFile Version 3.0
jCFD simulation data
ASCII
DATASET UNSTRUCTURED_GRID
POINTS 8241 double
0.0 0.0 0.0
0.5 0.0 0.0
0.0 0.1 0.0
0.5 0.1 0.0
0.0025 0.0 0.0
0.005 0.0 0.0
0.0075 0.0 0.0
0.01 0.0 0.0
0.0125 0.0 0.0
0.015 0.0 0.0
0.0175 0.0 0.0
0.02 0.0 0.0
0.0225 0.0 0.0
0.025 0.0 0.0
0.0275 0.0 0.0
0.03 0.0 0.0
0.0325 0.0 0.0
0.035 0.0 0.0
0.0375 0.0 0.0
0.04 0.0 0.0
0.0425 0.0 0.0
0.045 0.0 0.0
0.0475 0.0 0.0
0.05 0.0 0.0
0.0525 0.0 0.0
0.055 0.0 0.0
0.0575 0.0 0.0
0.06 0.0 0.0
0.0625 0.0 0.0
0.065 0.0 0.0
0.0675 0.0 0.0
0.07 0.0 0.0
0.0725 0.0 0.0
0.075 0.0 0.0
0.0775 0.0 0.0
0.08 0.0 0.0
0.0825 0.0 0.0
0.085 0.0 0.0
0.08750000000000001 0.0 0.0
0.09 0.0 0.0
0.0925 0.0 0.0
0.095 0.0 0.0
0.0975 0.0 0.0
0.1 0.0 0.0
0.10250000000000001 0.0 0.0
0.105 0.0 0.0
0.1075 0.0 0.0
0.11 0.0 0.0
0.1125 0.0 0.0
0.115 0.0 0.0
0.11750000000000001 0.0 0.0
0.12 0.0 0.0
0.1225 0.0 0.0
0.125 0.0 0.0
0.1275 0.0 0.0
0.13 0.0 0.0
0.1325 0.0 0.0
0.135 0.0 0.0
0.1375 0.0 0.0
0.14 0.0 0.0
0.14250000000000002 0.0 0.0
0.145 0.0 0.0
0.1475 0.0 0.0
0.15 0.0 0.0
0.1525 0.0 0.0
0.155 0.0 0.0
0.1575 0.0 0.0
0.16 0.0 0.0
0.1625 0.0 0.0
0.165 0.0 0.0
0.1675 0.0 0.0
0.17 0.0 0.0
0.17250000000000001 0.0 0.0
0.17500000000000002 0.0 0.0
0.1775 0.0 0.0
0.18 0.0 0.0
0.1825 0.0 0.0
0.185 0.0 0.0
0.1875 0.0 0.0
0.19 0.0 0.0
0.1925 0.0 0.0
0.195 0.0 0.0
0.1975 0.0 0.0
0.2 0.0 0.0
0.2025 0.0 0.0
0.20500000000000002 0.0 0.0
0.20750000000000002 0.0 0.0
0.21 0.0 0.0
0.2125 0.0 0.0
0.215 0.0 0.0
0.2175 0.0 0.0
0.22 0.0 0.0
0.2225 0.0 0.0
0.225 0.0 0.0
0.2275 0.0 0.0
0.23 0.0 0.0
0.2325 0.0 0.0
0.23500000000000001 0.0 0.0
0.23750000000000002 0.0 0.0
0.24 0.0 0.0
0.2425 0.0 0.0
0.245 0.0 0.0
0.2475 0.0 0.0
0.25 0.0 0.0
0.2525 0.0 0.0
0.255 0.0 0.0
0.2575 0.0 0.0
0.26 0.0 0.0
0.2625 0.0 0.0
0.265 0.0 0.0
0.2675 0.0 0.0
0.27 0.0 0.0
0.2725 0.0 0.0
0.275 0.0 0.0
0.2775 0.0 0.0
0.28 0.0 0.0
0.28250000000000003 0.0 0.0
0.28500000000000003 0.0 0.0
0.28750000000000003 0.0 0.0
0.29 0.0 0.0
0.2925 0.0 0.0
0.295 0.0 0.0
0.2975 0.0 0.0
0.3 0.0 0.0
0.3025 0.0 0.0
0.305 0.0 0.0
0.3075 0.0 0.0
0.31 0.0 0.0
0.3125 0.0 0.0
0.315 0.0 0.0
0.3175 0.0 0.0
0.32 0.0 0.0
0.3225 0.0 0.0
0.325 0.0 0.0
0.3275 0.0 0.0
0.33 0.0 0.0
0.3325 0.0 0.0
0.335 0.0 0.0
0.3375 0.0 0.0
0.34 0.0 0.0
0.3425 0.0 0.0
0.34500000000000003 0.0 0.0
0.34750000000000003 0.0 0.0
0.35000000000000003 0.0 0.0
0.3525 0.0 0.0
0.355 0.0 0.0
0.3575 0.0 0.0
0.36 0.0 0.0
0.3625 0.0 0.0
0.365 0.0 0.0
0.3675 0.0 0.0
0.37 0.0 0.0
0.3725 0.0 0.0
0.375 0.0 0.0
0.3775 0.0 0.0
0.38 0.0 0.0
0.3825 0.0 0.0
0.385 0.0 0.0
0.3875 0.0 0.0
0.39 0.0 0.0
0.3925 0.0 0.0
0.395 0.0 0.0
0.3975 0.0 0.0
0.4 0.0 0.0
0.4025 0.0 0.0
0.405 0.0 0.0
0.40750000000000003 0.0 0.0
0.41000000000000003 0.0 0.0
0.41250000000000003 0.0 0.0
0.41500000000000004 0.0 0.0
0.4175 0.0 0.0
0.42 0.0 0.0
0.4225 0.0 0.0
0.425 0.0 0.0
0.4275 0.0 0.0
0.43 0.0 0.0
0.4325 0.0 0.0
0.435 0.0 0.0
0.4375 0.0 0.0
0.44 0.0 0.0
0.4425 0.0 0.0
0.445 0.0 0.0
0.4475 0.0 0.0
0.45 0.0 0.0
0.4525 0.0 0.0
0.455 0.0 0.0
0.4575 0.0 0.0
0.46 0.0 0.0
0.4625 0.0 0.0
0.465 0.0 0.0
0.4675 0.0 0.0
0.47000000000000003 0.0 0.0
0.47250000000000003 0.0 0.0
0.47500000000000003 0.0 0.0
0.47750000000000004 0.0 0.0
0.48 0.0 0.0
0.4825 0.0 0.0
0.485 0.0 0.0
0.4875 0.0 0.0
0.49 0.0 0.0
0.4925 0.0 0.0
0.495 0.0 0.0
0.4975 0.0 0.0
0.0025 0.1 0.0
0.005 0.1 0.0
0.0075 0.1 0.0
0.01 0.1 0.0
0.0125 0.1 0.0
0.015 0.1 0.0
0.0175 0.1 0.0
0.02 0.1 0.0
0.0225 0.1 0.0
0.025 0.1 0.0
0.0275 0.1 0.0
0.03 0.1 0.0
0.0325 0.1 0.0
0.035 0.1 0.0
0.0375 0.1 0.0
0.04 0.1 0.0
0.0425 0.1 0.0
0.045 0.1 0.0
0.0475 0.1 0.0
0.05 0.1 0.0
0.0525 0.1 0.0
0.055 0.1 0.0
0.0575 0.1 0.0
0.06 0.1 0.0
0.0625 0.1 0.0
0.065 0.1 0.0
0.0675 0.1 0.0
0.07 0.1 0.0
0.0725 0.1 0.0
0.075 0.1 0.0
0.0775 0.1 0.0
0.08 0.1 0.0
0.0825 0.1 0.0
0.085 0.1 0.0
0.08750000000000001 0.1 0.0
0.09 0.1 0.0
0.0925 0.1 0.0
0.095 0.1 0.0
0.0975 0.1 0.0
0.1 0.1 0.0
0.10250000000000001 0.1 0.0
0.105 0.1 0.0
0.1075 0.1 0.0
0.11 0.1 0.0
0.1125 0.1 0.0
0.115 0.1 0.0
0.11750000000000001 0.1 0.0
0.12 0.1 0.0
0.1225 0.1 0.0
0.125 0.1 0.0
0.1275 0.1 0.0
0.13 0.1 0.0
0.1325 0.1 0.0
0.135 0.1 0.0
0.1375 0.1 0.0
0.14 0.1 0.0
0.14250000000000002 0.1 0.0
0.145 0.1 0.0
0.1475 0.1 0.0
0.15 0.1 0.0
0.1525 0.1 0.0
0.155 0.1 0.0
0.1575 0.1 0.0
0.16 0.1 0.0
0.1625 0.1 0.0
0.165 0.1 0.0
0.1675 0.1 0.0
0.17 0.1 0.0
0.17250000000000001 0.1 0.0
0.17500000000000002 0.1 0.0
0.1775 0.1 0.0
0.18 0.1 0.0
0.1825 0.1 0.0
0.185 0.1 0.0
0.1875 0.1 0.0
0.19 0.1 0.0
0.1925 0.1 0.0
0.195 0.1 0.0
0.1975 0.1 0.0
0.2 0.1 0.0
0.2025 0.1 0.0
0.20500000000000002 0.1 0.0
0.20750000000000002 0.1 0.0
0.21 0.1 0.0
0.2125 0.1 0.0
0.215 0.1 0.0
0.2175 0.1 0.0
0.22 0.1 0.0
0.2225 0.1 0.0
0.225 0.1 0.0
0.2275 0.1 0.0
0.23 0.1 0.0
0.2325 0.1 0.0
0.23500000000000001 0.1 0.0
0.23750000000000002 0.1 0.0
0.24 0.1 0.0
0.2425 0.1 0.0
0.245 0.1 0.0
0.2475 0.1 0.0
0.25 0.1 0.0
0.2525 0.1 0.0
0.255 0.1 0.0
0.2575 0.1 0.0
0.26 0.1 0.0
0.2625 0.1 0.0
0.265 0.1 0.0
0.2675 0.1 0.0
0.27 0.1 0.0
0.2725 0.1 0.0
0.275 0.1 0.0
0.2775 0.1 0.0
0.28 0.1 0.0
0.28250000000000003 0.1 0.0
0.28500000000000003 0.1 0.0
0.28750000000000003 0.1 0.0
0.29 0.1 0.0
0.2925 0.1 0.0
0.295 0.1 0.0
0.2975 0.1 0.0
0.3 0.1 0.0
0.3025 0.1 0.0
0.305 0.1 0.0
0.3075 0.1 0.0
0.31 0.1 0.0
0.3125 0.1 0.0
0.315 0.1 0.0
0.3175 0.1 0.0
0.32 0.1 0.0
0.3225 0.1 0.0
0.325 0.1 0.0
0.3275 0.1 0.0
0.33 0.1 0.0
0.3325 0.1 0.0
0.335 0.1 0.0
0.3375 0.1 0.0
0.34 0.1 0.0
0.3425 0.1 0.0
0.34500000000000003 0.1 0.0
0.34750000000000003 0.1 0.0
0.35000000000000003 0.1 0.0
0.3525 0.1 0.0
0.355 0.1 0.0
0.3575 0.1 0.0
0.36 0.1 0.0
0.3625 0.1 0.0
0.365 0.1 0.0
0.3675 0.1 0.0
0.37 0.1 0.0
0.3725 0.1 0.0
0.375 0.1 0.0
0.3775 0.1 0.0
0.38 0.1 0.0
0.3825 0.1 0.0
0.385 0.1 0.0
0.3875 0.1 0.0
0.39 0.1 0.0
0.3925 0.1 0.0
0.395 0.1 0.0
0.3975 0.1 0.0
0.4 0.1 0.0
0.4025 0.1 0.0
0.405 0.1 0.0
0.40750000000000003 0.1 0.0
0.41000000000000003 0.1 0.0
0.41250000000000003 0.1 0.0
0.41500000000000004 0.1 0.0
0.4175 0.1 0.0
0.42 0.1 0.0
0.4225 0.1 0.0
0.425 0.1 0.0
0.4275 0.1 0.0
0.43 0.1 0.0
0.4325 0.1 0.0
0.435 0.1 0.0
0.4375 0.1 0.0
0.44 0.1 0.0
0.4425 0.1 0.0
0.445 0.1 0.0
0.4475 0.1 0.0
0.45 0.1 0.0
0.4525 0.1 0.0
0.455 0.1 0.0
0.4575 0.1 0.0
0.46 0.1 0.0
0.4625 0.1 0.0
0.465 0.1 0.0
0.4675 0.1 0.0
0.47000000000000003 0.1 0.0
0.47250000000000003 0.1 0.0
0.47500000000000003 0.1 0.0
0.47750000000000004 0.1 0.0
0.48 0.1 0.0
0.4825 0.1 0.0
0.485 0.1 0.0
0.4875 0.1 0.0
0.49 0.1 0.0
0.4925 0.1 0.0
0.495 0.1 0.0
0.4975 0.1 0.0
0.0 0.0025 0.0
0.0 0.005 0.0
0.0 0.0075 0.0
0.0 0.01 0.0
0.0 0.0125 0.0
0.0 0.015 0.0
0.0 0.0175 0.0
0.0 0.02 0.0
0.0 0.0225 0.0
0.0 0.025 0.0
0.0 0.0275 0.0
0.0 0.03 0.0
0.0 0.0325 0.0
0.0 0.035 0.0
0.0 0.0375 0.0
0.0 0.04 0.0
0.0 0.0425 0.0
0.0 0.045 0.0
0.0 0.0475 0.0
0.0 0.05 0.0
0.0 0.0525 0.0
0.0 0.055 0.0
0.0 0.0575 0.0
0.0 0.06 0.0
0.0 0.0625 0.0
0.0 0.065 0.0
0.0 0.0675 0.0
0.0 0.07 0.0
0.0 0.0725 0.0
0.0 0.075 0.0
0.0 0.0775 0.0
0.0 0.08 0.0
0.0 0.0825 0.0
0.0 0.085 0.0
0.0 0.08750000000000001 0.0
0.0 0.09 0.0
0.0 0.0925 0.0
0.0 0.095 0.0
0.0 0.0975 0.0
0.5 0.0025 0.0
0.5 0.005 0.0
0.5 0.0075 0.0
0.5 0.01 0.0
0.5 0.0125 0.0
0.5 0.015 0.0
0.5 0.0175 0.0
0.5 0.02 0.0
0.5 0.0225 0.0
0.5 0.025 0.0
0.5 0.0275 0.0
0.5 0.03 0.0
0.5 0.0325 0.0
0.5 0.035 0.0
0.5 0.0375 0.0
0.5 0.04 0.0
0.5 0.0425 0.0
0.5 0.045 0.0
0.5 0.0475 0.0
0.5 0.05 0.0
0.5 0.0525 0.0
0.5 0.055 0.0
0.5 0.0575 0.0
0.5 0.06 0.0
0.5 0.0625 0.0
0.5 0.065 0.0
0.5 0.0675 0.0
0.5 0.07 0.0
0.5 0.0725 0.0
0.5 0.075 0.0
0.5 0.0775 0.0
0.5 0.08 0.0
0.5 0.0825 0.0
0.5 0.085 0.0
0.5 0.08750000000000001 0.0
0.5 0.09 0.0
0.5 0.0925 0.0
0.5 0.095 0.0
0.5 0.0975 0.0
0.0025 0.0025 0.0
0.005 0.0025 0.0
0.0075 0.0025 0.0
0.01 0.0025 0.0
0.0125 0.0025 0.0
0.015 0.0025 0.0
0.0175 0.0025 0.0
0.02 0.0025 0.0
0.0225 0.0025 0.0
0.025 0.0025 0.0
0.0275 0.0025 0.0
0.03 0.0025 0.0
0.0325 0.0025 0.0
0.035 0.0025 0.0
0.0375 0.0025 0.0
0.04 0.0025 0.0
0.0425 0.0025 0.0
0.045 0.0025 0.0
0.0475 0.0025 0.0
0.05 0.0025 0.0
0.0525 0.0025 0.0
0.055 0.0025 0.0
0.0575 0.0025 0.0
0.06 0.0025 0.0
0.0625 0.0025 0.0
0.065 0.0025 0.0
0.0675 0.0025 0.0
0.07 0.0025 0.0
0.0725 0.0025 0.0
0.075 0.0025 0.0
0.0775 0.0025 0.0
0.08 0.0025 0.0
0.0825 0.0025 0.0
0.085 0.0025 0.0
0.08750000000000001 0.0025 0.0
0.09 0.0025 0.0
0.0925 0.0025 0.0
0.095 0.0025 0.0
0.0975 0.0025 0.0
0.1 0.0025 0.0
0.10250000000000001 0.0025 0.0
0.105 0.0025 0.0
0.1075 0.0025 0.0
0.11 0.0025 0.0
0.1125 0.0025 0.0
0.115 0.0025 0.0
0.11750000000000001 0.0025 0.0
0.12 0.0025 0.0
0.1225 0.0025 0.0
0.125 0.0025 0.0
0.1275 0.0025 0.0
0.13 0.0025 0.0
0.1325 0.0025 0.0
0.135 0.0025 0.0
0.1375 0.0025 0.0
0.14 0.0025 0.0
0.14250000000000002 0.0025 0.0
0.145 0.0025 0.0
0.1475 0.0025 0.0
0.15 0.0025 0.0
0.1525 0.0025 0.0
0.155 0.0025 0.0
0.1575 0.0025 0.0
0.16 0.0025 0.0
0.1625 0.0025 0.0
0.165 0.0025 0.0
0.1675 0.0025 0.0
0.17 0.0025 0.0
0.17250000000000001 0.0025 0.0
0.17500000000000002 0.0025 0.0
0.1775 0.0025 0.0
0.18 0.0025 0.0
0.1825 0.0025 0.0
0.185 0.0025 0.0
0.1875 0.0025 0.0
0.19 0.0025 0.0
0.1925 0.0025 0.0
0.195 0.0025 0.0
0.1975 0.0025 0.0
0.2 0.0025 0.0
0.2025 0.0025 0.0
0.20500000000000002 0.0025 0.0
0.20750000000000002 0.0025 0.0
0.21 0.0025 0.0
0.2125 0.0025 0.0
0.215 0.0025 0.0
0.2175 0.0025 0.0
0.22 0.0025 0.0
0.2225 0.0025 0.0
0.225 0.0025 0.0
0.2275 0.0025 0.0
0.23 0.0025 0.0
0.2325 0.0025 0.0
0.23500000000000001 0.0025 0.0
0.23750000000000002 0.0025 0.0
0.24 0.0025 0.0
0.2425 0.0025 0.0
0.245 0.0025 0.0
0.2475 0.0025 0.0
0.25 0.0025 0.0
0.2525 0.0025 0.0
0.255 0.0025 0.0
0.2575 0.0025 0.0
0.26 0.0025 0.0
0.2625 0.0025 0.0
0.265 0.0025 0.0
0.2675 0.0025 0.0
0.27 0.0025 0.0
0.2725 0.0025 0.0
0.275 0.0025 0.0
0.2775 0.0025 0.0
0.28 0.0025 0.0
0.28250000000000003 0.0025 0.0
0.28500000000000003 0.0025 0.0
0.28750000000000003 0.0025 0.0
0.29 0.0025 0.0
0.2925 0.0025 0.0
0.295 0.0025 0.0
0.2975 0.0025 0.0
0.3 0.0025 0.0
0.3025 0.0025 0.0
0.305 0.0025 0.0
0.3075 0.0025 0.0
0.31 0.0025 0.0
0.3125 0.0025 0.0
0.315 0.0025 0.0
0.3175 0.0025 0.0
0.32 0.0025 0.0
0.3225 0.0025 0.0
[...]
CELL_DATA 8000
SCALARS phi float 1
LOOKUP_TABLE CellColors
0.30764465909573957
0.30597470973520324
0.3043742405500322
0.3028852174449887
0.3015256708755904
0.3002614979506278
0.2990618743806048
0.29790566210628733
0.2967786909447818
0.29567113521468313
0.294575910017123
0.2934877426016688
0.2924026157243291
0.2913174160566274
0.29022970124954744
0.2891375394354937
0.2880393950251173
0.2869340452111182
0.2858205174884841
0.28469804195664145
0.28356601426746186
0.28242396640234224
0.2812715433082244
0.28010848399965815
0.2789346061142557
0.2777497931802646
0.27655398404354
0.2753471640179497
0.2741293574591357
0.2729006214713994
0.2716610405794078
0.27041072219268597
0.269149792732425
0.26787839431802485
0.26659668193805786
0.2653048210087642
0.26400298529701427
0.2626913551218477
0.2613701158101041
0.2600394563789486
0.2586995683998393
0.25735064502735144
0.25599288016641786
0.2546264677573353
0.25325160116813483
0.25186847267889895
0.25047727304218487
0.2490781911107377
0.24767141352501432
0.2462571244514915
0.244835505365348
0.24340673487155723
0.24197098855742208
0.2405284388733432
0.23907925504013583
0.2376236029781441
0.23616164525389
0.2346935410422462
0.2332194461024389
0.23173951276625812
0.23025388993706725
0.22876272309781454
0.227266154326411
0.22576432231762678
0.22425736241073188
0.22274540662202819
0.2212285836815391
0.2197070190732928
0.21818083507891728
0.21665015082386763
0.21511508232593063
0.21357574254542186
0.21203224143699667
0.21048468600278009
0.20893318034639083
0.20737782572807192
0.20581872062049958
0.20425596076507518
0.20268963922853056
0.20111984645986647
0.19954667034736917
0.1979701962754783
0.19639050718168216
0.19480768361340173
0.1932218037845502
0.19163294363182953
0.1900411768707216
0.18844657505089296
0.1868492076109584
0.18524914193269978
0.18364644339481914
0.18204117542638584
0.18043339955966778
0.17882317548187981
0.1772105610862378
0.1755956125220978
0.1739783842443986
0.17235892906251238
0.1707372981883068
0.16911354128328954
0.1674877065048404
0.16585984055169123
0.16422998870837577
0.16259819488874108
0.1609645016786378
0.15932895037772637
0.15769158104038716
0.1560524325157249
0.15441154248677028
0.15276894750878875
0.15112468304655485
0.1494787835107204
0.1478312822932959
0.14618221180222035
0.14453160349505098
0.1428794879117719
0.1412258947067205
0.1395708526796548
0.13791438980600207
0.13625653326627657
0.13459730947461473
0.13293674410644196
0.13127486212531683
0.1296116878089875
0.12794724477467334
0.12628155600360857
0.12461464386483796
0.12294653013823909
0.1212772360368011
0.1196067822281742
0.11793518885546529
0.11626247555733213
0.11458866148739257
0.11291376533295752
0.11123780533309446
0.10956079929603751
0.10788276461591509
0.10620371828881148
0.10452367692815326
0.1028426567794293
0.1011606737342523
0.09947774334375925
0.09779388083134646
0.09610910110471335
0.09442341876725924
0.09273684812876677
0.0910494032153526
0.08936109777863557
0.0876719453040812
0.08598195901847443
0.08429115189649472
0.08259953666634354
0.08090712581429271
0.07921393158799445
0.07751996599841457
0.07582524082025952
0.0741297675907376
0.07243355760639712
0.07073662191782833
0.06903897132186777
0.0673406163508972
0.06564156725883499
0.06394183400326738
0.0622414262231315
0.06054035321125302
0.058838623880864284
0.05713624672499677
0.05543322976749488
0.0537295805041888
0.05202530583239941
0.05032041196662121
0.048614904337805395
0.04690878747306651
0.04520206485196774
0.04349473873459293
0.041786809955518533
0.04007827767638917
0.03836913908791934
0.036659389049718154
0.03494901965316939
0.033238019688303366
0.03152637398973829
0.029814062628842126
0.02810105990822568
0.026387333099156925
0.02467284084016541
0.02295753108254409
0.02124133842019741
0.019524180568174967
0.017805953641231404
0.016086525707346835
0.014365727818120833
0.012643341323941595
0.010919079865712908
0.009192564752870528
0.007463297194604889
0.005730656212527031
0.003994059925725792
0.0022541565220070086
0.0007011011332391494
0.3055134968103451
0.30470644860211016
0.30365734382569987
0.30247898820267943
0.30128275009296657
0.30010708439003336
0.29895920342792237
0.29783578139123407
0.29673101298720034
0.2956392471163194
0.29455565761108055
0.29347629114800405
0.2923979514829425
0.29131806235079155
0.29023454706424806
0.28914573101509855
0.2880502646515579
0.28694706289594146
0.2858352573014106
0.2847141579885584
0.2835832231024069
0.2824420340931476
0.2812902755364614
0.280127718529842
0.2789542069300095
0.27776964586681063
0.27657399211383193
0.27536724595484857
0.2741494443134269
0.27292065490149253
0.2716809712338404
0.27043050836745547
0.2691693992526786
0.2678977915966738
0.26661584517995623
0.26532372953872413
0.2640216219846624
0.2627097058951124
0.2613881692407412
0.26005720332401727
0.25871700169282974
0.25736775921053384
0.25600967126104146
0.25464293306622
0.2532677391038697
0.2518842826142485
0.2504927551803238
0.24909334637242808
0.24768624345071247
0.24627163111618797
0.24484969130339074
0.24342060301082225
0.2419845421630517
0.24054168149880395
0.23909219048320357
0.23763623524217
0.23617397851456562
0.2347055796187954
0.23323119443226276
0.23175097538232364
0.23026507144776215
0.22877362816946273
0.22727678766820125
0.2257746886681501
0.2242674665260386
0.22275525326537216
0.2212381776142992
0.21971636504678085
0.218189937827008
0.21665901505680807
0.2151237127248989
0.21358414375770607
0.21204041807171925
0.2104926426269595
0.20894092148169846
0.20738535584797393
0.20582604414770977
0.20426308206927352
0.2026965626244958
0.20112657620589736
0.1995532106437735
0.19797655126331595
0.1963966809418384
0.19481368016571027
0.19322762708708383
0.19163859758044077
0.19004666529864445
0.18845190172837245
0.18685437624496137
0.18525415616670868
0.18365130680892067
0.18204589153755157
0.1804379718218321
0.178827607286211
0.17721485576132867
0.17559977333419846
0.17398241439782333
0.17236283170011926
0.17074107639198377
0.1691171980744213
0.1674912448449583
0.16586326334305287
0.16423329879452914
0.16260139505516805
0.16096759465342583
0.15933193883224736
0.15769446758995642
0.15605521972035177
0.15441423285195446
0.15277154348623828
0.15112718703493883
0.14948119785645256
0.14783360929130535
0.14618445369673722
0.14453376248040437
0.14288156613317912
0.14122789426107038
0.1395727756163189
0.1379162381276699
0.1362583089297715
0.1345990143916847
0.13293838014454348
0.1312764311084021
0.1296131915182852
0.12794868494948572
0.12628293434212137
0.12461596202490996
0.12294778973818843
0.12127843865619628
0.11960792940859609
0.11793628210126872
0.11626351633640905
0.11458965123193093
0.1129147054401961
0.11123869716608922
0.10956164418441638
0.10788356385663406
0.10620447314690609
0.10452438863748839
0.10284332654345438
0.10116130272676402
0.09947833270967646
0.09779443168747096
0.09610961454053317
0.0944238958457595
0.09273728988726612
0.09104981066636313
0.08936147191074852
0.08767228708287805
0.08598226938749054
0.08429143177827626
0.08259978696359302
0.08090734741109012
0.07921412535110256
0.077520132778705
0.0758253814543092
0.07412988290258168
0.07243364840952433
0.07073668901743041
0.06903901551735904
0.06734063843880377
0.06564156803607737
0.06394181427092474
0.062241386790812044
0.06054029490220611
0.05883854753791326
0.057136153217442115
0.055433119999230875
0.05372945542326259
0.05202516644229557
0.05032025933963768
0.04861473963096245
0.04690861194716338
0.04520187989448452
0.043494545887312254
0.04178661094803411
0.04007807446703349
0.038368933914098444
0.03665918449026414
0.03494881870622181
0.03323782586946217
0.031526191457054153
0.029813896343759243
0.028100915845370875
0.026387218523476256
0.024672764678426426
0.022957504429286735
0.02124137523841705
0.019524298676052817
0.017806176122190497
0.016086882939375186
0.014366260352558214
0.01264410366435179
0.010920144000139369
0.009194016849067718
0.007465198361230321
0.005732847363162769
0.003995317033297912
0.002248747197907114
0.0006972709765025089
0.3035592197149712
0.30315943850072247
0.30250283082977103
0.3016490514279019
0.3006889692586147
0.2996773382910782
0.29864293263767394
0.2975993496378153
0.2965521850456591
0.2955030846795203
0.29445186243051613
0.2933975610323324
0.2923389674848501
0.29127485518819424
0.29020409115015555
0.28912567729436334
0.2880387600967089
0.2869426255188404
0.28583668764769865
0.2847204751851566
0.28359361779118175
0.2824558332080839
0.2813069155418423
0.2801467248037778
0.27897517768526725
0.27779223946508935
0.2765979169488856
0.2753922523138668
0.2741753177603856
0.2729472108613778
0.2717080505278945
0.2704579735057182
0.2691971313367363
0.2679256877262465
0.26664381625556494
0.2653516984023958
0.26404952183554736
0.2627374789351864
0.26141576551610995
0.260084579726384
0.25874412109892353
0.25739458973874807
0.25603618562591335
0.2546691080177063
0.2532935549393529
0.25190972275305734
0.2505178057927769
0.24911799605475277
0.24771048293911435
0.24629545303624323
0.2448730899500382
0.243443574154301
0.2420070828782402
0.24056379001501904
0.23911386605094032
0.23765747801440745
0.23619478944143668
0.2347259603545947
0.23325114725334734
0.23177050311414119
0.23028417739934784
0.2287923160746249
0.2272950616330519
0.22579255312451757
0.22428492618982893
0.2227723130990162
0.22125484279313024
0.21973264092887318
0.21820582992613385
0.21667452901786893
0.21513885430179022
0.21359891879351806
0.2120548324807336
0.2105067023785386
0.2089546325856979
0.20739872434150058
0.2058390760830947
0.2042757835033076
0.20270893960877412
0.20113863477791377
0.19956495681887015
0.197987991027601
0.19640782024567008
0.1948245249178342
0.19323818314947713
0.1916488707636091
0.19005666135731833
0.188461626357643
0.1868638350768033
0.18526335476705616
0.18366025067524025
0.18205458609649486
0.18044642242730555
0.17883581921757732
0.17722283422178264
0.17560752344947783
0.17398994121518158
0.1723701401875022
0.17074817143729915
0.16912408448511476
0.1674979273476622
0.16586974658332412
0.164239587336757
0.16260749338261785
0.16097350716837383
0.15933766985617218
0.15770002136389205
0.15606060040534134
0.1544194445295069
0.15277659015888165
0.15113207262685102
0.1494859262141152
0.14783818418422331
0.1461888788182218
0.14453804144838694
0.14288570249105254
0.14123189147859264
0.13957663709056647
0.13791996718400246
0.1362619088227963
0.13460248830622884
0.13294173119665217
0.13127966234634683
0.12961630592360243
0.12795168543805074
0.12628582376522315
0.1246187431703287
0.12295046533128494
0.12128101136098887
0.11961040182884705
0.11793865678158214
0.11626579576333335
0.11459183783506172
0.11291680159329698
0.1112407051882107
0.10956356634102035
0.10788540236072514
0.10620623016017129
0.10452606627145025
0.10284492686064672
0.10116282774193991
0.09947978439101851
0.09779581195785586
0.09611092527882095
0.09442513888813117
0.09273846702861101
0.09105092366172451
0.08936252247683554
0.08767327689967243
0.08598320009999336
0.0842923049984042
0.08260060427222435
0.08090811036028221
0.07921483546652539
0.07752079156236787
0.07582599038758432
0.07413044344963063
0.07243416202117856
0.07073715713557205
0.06903943957993781
0.0673410198855724
0.06564190831518743
0.06394211484656669
0.062241649152115525
0.06054052057358797
0.058838738091145704
0.05713631028581424
0.05543324529418707
0.05372955075399086
0.05202523373889768
0.050320300680626276
0.048614757276032164
0.04690860837637347
0.045201857855291495
0.043494508451305786
0.04178656157973537
0.0400780171077835
0.038368873085018226
0.03665912541957045
0.03494876748786886
0.033237789662530236
0.0315261787387377
0.0298139172337644
0.028100982526685424
0.026387345794949925
0.024672970690236596
0.02295781167606375
0.02124181192086649
0.019524900597413394
0.017806989371262908
0.016087967741416243
0.01436769665912211
0.012645999314602665
0.010922646635333117
0.009197331443107545
0.007469615475837178
0.005738808303513076
0.004003672262134201
0.00226212391707244
0.000704199604521668
0.3018643406276233
0.30162904302111415
0.3011922366546261
0.30057208237857547
0.2998224165300382
0.29898567737463627
0.29809122432520774
0.2971579785261398
0.2961976229739706
0.29521715322555986
0.2942206391989733
0.29321036566599834
0.29218754721867657
0.29115276913579813
0.2901062567838281
0.28904803921658473
0.2879780478539806
0.28689617537010487
0.28580231017088253
0.2846963558798279
0.2835782416186515
0.2824479266616996
0.2813054016909566
0.2801506880385413
0.2789838357941546
0.2778049213227709
0.27661404452012645
0.2754113260320579
0.2741969045547177
0.27297093428230046
0.27173358255008595
0.270485027686436
0.2692254570669895
0.26795506538689484
0.2666740531090777
0.26538262509907584
0.26408098942330815
0.2627693562936787
0.2614479371519501
0.2601169438705474
0.2587765880584123
0.25742708046542173
0.2560686304722695
0.2547014456522066
0.2533257313971684
0.25194169060404714
0.25054952341271675
0.24914942698572168
0.24774159532545967
0.2463262191262838
0.2449034856558877
0.24347357866203645
0.2420366783021939
0.24059296109180647
0.2391425998678819
0.23768576376685013
0.2362226182156584
0.23475332493397635
0.2332780419455417
0.23179692359674686
0.23031012058146239
0.2288177799718933
0.2273200452551315
0.22581705637406452
0.22430894977145294
0.22279585843696126
0.22127791195685062
0.21975523656597484
0.21822795520152516
0.2166961875583513
0.21516005014578182
0.21361965634532282
0.21207511646913568
0.21052653781910347
0.20897402474632187
0.2074176787109473
0.20585759834236472
0.20429387949961905
0.20272661533162786
0.20115589633718792
0.1995818104250426
0.1980044429735266
0.19642387688992147
0.1948401926695998
0.1932534684546962
0.19166378009223428
0.19007120119168894
0.18847580318183954
0.1868776553670335
0.18527682498305362
0.18367337725229793
0.18206737543833726
0.1804588808995249
0.17884795314156587
0.17723464986931298
0.17561902703787485
0.17400113890304372
0.17238103807075844
0.17075877554578697
0.16913440077951092
0.16750796171672572
0.16587950484148106
0.1642490752220196
0.1626167165547613
0.16098247120733924
0.15934638026077508
0.15770848355075173
0.15606881970797773
0.1544274261976425
0.1527843393579162
0.15113959443745126
0.14949322563196304
0.1478452661199218
0.14619574809731586
0.14454470281148993
0.1428921605941113
0.14123815089326217
0.13958270230466513
0.13792584260203192
0.1362675987665104
0.1346079970152694
0.13294706282923652
0.13128482098001756
0.12962129555605575
0.12795650998801916
0.12629048707339316
0.12462324900028951
0.1229548173705041
0.12128521322182506
0.11961445704959914
0.11794256882756896
0.11626956802799455
0.11459547364109463
0.11292030419381673
0.11124407776793158
0.10956681201746513
0.10788852418546058
0.10620923112007125
0.1045289492900005
0.10284769479930758
0.10116548340154241
0.0994823305132307
0.09779825122669902
0.09611326032226336
0.09442737227975735
0.09274060128937993
0.09105296126183474
0.08936446583772333
0.08767512839618556
0.08598496206276558
0.08429397971644469
0.08260219399575314
0.08090961730385413
0.07921626181254025
0.07752213946499548
0.0758272619772126
0.07413164083792408
0.07243528730682264
0.07073821241085372
0.06904042693829021
0.06734194143025966
0.06564276616935978
0.06394291116496759
0.06224238613469905
0.06054120048138408
0.05883936326484064
0.05713688316757269
0.05543376845330289
0.05373002691713101
0.05202566582587724
0.05032069184688307
0.048615110963211666
0.04690892837273891
0.045202148368146136
0.04349477419424419
0.041786807878270125
0.04007825002786541
0.03836909959036132
0.03665935356552586
0.034949006662126816
0.03323805088637238
0.03152647504739192
0.02981426416131201
0.02810139873084388
0.02638785387129241
0.024673598246364913
0.022958592767438026
0.02124278899720418
0.01952612718126637
0.017808533805313418
0.016089918530344513
0.014370170265473067
0.01264915192094684
0.01092669284879898
0.009202576656639393
0.007476518929302829
0.005748122251134147
0.004016768687993429
0.002281690363197877
0.0007143320386159395
0.3004061014664253
0.3002412911424082
0.2999199774586987
0.2994441019952874
0.2988443982444141
0.2981491638261942
0.29738122342491335
0.29655770435918577
0.2956909550514283
0.2947896886333103
0.29385998757067483
0.29290608071149504
0.29193090977489694
0.29093653026613087
0.2899243909359195
0.28889552706709215
0.287850693626929
0.28679045679361476
0.2857152567668278
0.28462545078689616
0.28352134250416
0.28240320192120133
0.2812712788209472
0.28012581168633566
0.27896703349670376
0.2777951753921658
0.2766104688453684
0.2754131468359595
0.27420344435360566
0.2729815984511255
0.27174784801326124
0.2705024333550131
0.2692455957188301
0.2679775767470197
0.2666986179254352
0.2654089600594193
0.26410884277895
0.26279850407629385
0.2614781798933441
0.2601481037548026
0.25880850644264886
0.2574596157139643
0.2561016560610622
0.2547348485081875
0.2533594104399127
0.25197555546038225
0.2505834932822455
0.24918342963972467
0.24777556622151506
0.24636010062295366
0.24493722631522696
0.24350713262879803
0.24207000475042623
0.2406260237318104
0.239175366506389
0.23771820591343135
0.23625471072944515
0.2347850457061109
0.23330937161359383
0.23182784528822287
0.230340619683155
0.22884784392171403
0.22734966335361595
0.2258462196135987
0.2243376506816439
0.22282409094440198
0.22130567125788742
0.21978251901107326
0.2182547581899786
0.2167225094423394
0.21518589014268505
0.21364501445773143
0.21209999341181693
0.2105509349521647
0.20899794401400013
0.20744112258554626
0.20588056977297844
0.20431638186492135
0.20274865239644368
0.20117747221286836
0.19960292953291375
0.19802511001129125
0.196444096800901
0.19485997061439048
0.19327280978501687
0.19168269032687818
0.19008968599436937
0.18849386834083812
0.18689530677660005
0.18529406862622924
0.18369021918524647
0.1820838217758719
0.18047493780166718
0.1788636268012431
0.17724994650112946
0.17563395286792255
0.17401570015945522
0.17239524097511955
0.17077262630529433
0.16914790557978537
0.16752112671524472
0.16589233616163576
0.16426157894768767
0.1626288987253691
0.160994337813453
0.15935793724012193
0.15771973678464182
0.15607977501810472
0.154438089343223
0.1527947160331006
0.15114969026902614
0.14950304617734625
0.1478548168654018
0.14620503445652033
0.14455373012411374
0.14290093412485544
0.14124667583095954
0.1395909837615819
0.13793388561330253
0.13627540828970564
0.1346155779300917
0.13295441993732704
0.1312919590049018
0.12962821914322115
0.12796322370509422
0.12629699541039605
0.12462955636996323
0.12296092810873926
0.12129113158816113
0.11962018722780174
0.11794811492626697
0.11627493408138687
0.11460066360972132
0.11292532196538434
0.11124892715819915
0.10957149677118662
0.10789304797737792
0.10621359755597104
0.10453316190785689
0.10285175707049826
0.10116939873215756
0.09948610224546293
0.09780188264034613
0.09611675463633568
0.09443073265420453
0.09274383082696494
0.09105606301017435
0.08936744279152874
0.08767798349973999
0.08598769821266504
0.0842965997646413
0.08260470075293604
0.08091201354327007
0.07921855027430562
0.07752432286100609
0.0758293429967624
0.07413362215412868
0.07243717158399568
0.07074000231299668
0.06904212513889074
0.06734355062363698
0.06564428908387161
0.06394435057839538
0.06224374489219191
0.0605424815164371
0.058840569623892114
0.05713801803887891
0.05543483520092896
0.0537310291210632
0.05202660732946461
0.050321576813116914
0.048615943941663804
0.046909714379396276
0.0452028929809723
0.043495483668032506
0.04178748928329524
0.04007891141808815
0.038369750208557984
0.03666000409496147
0.03494966953742803
0.03323874068031791
0.03152720895600339
0.02981506261756066
0.028102286188427902
0.02638885981584721
0.024674758514319967
0.022959951286178528
0.021244400109912485
0.01952805879529735
0.017810871721326116
0.01609277250406537
0.01437368269592074
0.01265351071057096
0.010932151324349748
0.009209486345414405
0.0074853871546376495
0.0057597175760192975
0.00403230171153526
0.0023030101485659806
0.000725237282056217
0.29913754190889724
0.2990085474239659
0.2987521826613555
0.2983648513986331
0.2978654970973195
0.2972730968504253
0.29660441720294184
0.2958732358044373