# vtk DataFile Version 3.0
jCFD simulation data
ASCII
DATASET UNSTRUCTURED_GRID
POINTS 8241 double
0.0 0.0 0.0
0.5 0.0 0.0
0.0 0.1 0.0
0.5 0.1 0.0
0.0025 0.0 0.0
0.005 0.0 0.0
0.0075 0.0 0.0
0.01 0.0 0.0
0.0125 0.0 0.0
0.015 0.0 0.0
0.0175 0.0 0.0
0.02 0.0 0.0
0.0225 0.0 0.0
0.025 0.0 0.0
0.0275 0.0 0.0
0.03 0.0 0.0
0.0325 0.0 0.0
0.035 0.0 0.0
0.0375 0.0 0.0
0.04 0.0 0.0
0.0425 0.0 0.0
0.045 0.0 0.0
0.0475 0.0 0.0
0.05 0.0 0.0
0.0525 0.0 0.0
0.055 0.0 0.0
0.0575 0.0 0.0
0.06 0.0 0.0
0.0625 0.0 0.0
0.065 0.0 0.0
0.0675 0.0 0.0
0.07 0.0 0.0
0.0725 0.0 0.0
0.075 0.0 0.0
0.0775 0.0 0.0
0.08 0.0 0.0
0.0825 0.0 0.0
0.085 0.0 0.0
0.08750000000000001 0.0 0.0
0.09 0.0 0.0
0.0925 0.0 0.0
0.095 0.0 0.0
0.0975 0.0 0.0
0.1 0.0 0.0
0.10250000000000001 0.0 0.0
0.105 0.0 0.0
0.1075 0.0 0.0
0.11 0.0 0.0
0.1125 0.0 0.0
0.115 0.0 0.0
0.11750000000000001 0.0 0.0
0.12 0.0 0.0
0.1225 0.0 0.0
0.125 0.0 0.0
0.1275 0.0 0.0
0.13 0.0 0.0
0.1325 0.0 0.0
0.135 0.0 0.0
0.1375 0.0 0.0
0.14 0.0 0.0
0.14250000000000002 0.0 0.0
0.145 0.0 0.0
0.1475 0.0 0.0
0.15 0.0 0.0
0.1525 0.0 0.0
0.155 0.0 0.0
0.1575 0.0 0.0
0.16 0.0 0.0
0.1625 0.0 0.0
0.165 0.0 0.0
0.1675 0.0 0.0
0.17 0.0 0.0
0.17250000000000001 0.0 0.0
0.17500000000000002 0.0 0.0
0.1775 0.0 0.0
0.18 0.0 0.0
0.1825 0.0 0.0
0.185 0.0 0.0
0.1875 0.0 0.0
0.19 0.0 0.0
0.1925 0.0 0.0
0.195 0.0 0.0
0.1975 0.0 0.0
0.2 0.0 0.0
0.2025 0.0 0.0
0.20500000000000002 0.0 0.0
0.20750000000000002 0.0 0.0
0.21 0.0 0.0
0.2125 0.0 0.0
0.215 0.0 0.0
0.2175 0.0 0.0
0.22 0.0 0.0
0.2225 0.0 0.0
0.225 0.0 0.0
0.2275 0.0 0.0
0.23 0.0 0.0
0.2325 0.0 0.0
0.23500000000000001 0.0 0.0
0.23750000000000002 0.0 0.0
0.24 0.0 0.0
0.2425 0.0 0.0
0.245 0.0 0.0
0.2475 0.0 0.0
0.25 0.0 0.0
0.2525 0.0 0.0
0.255 0.0 0.0
0.2575 0.0 0.0
0.26 0.0 0.0
0.2625 0.0 0.0
0.265 0.0 0.0
0.2675 0.0 0.0
0.27 0.0 0.0
0.2725 0.0 0.0
0.275 0.0 0.0
0.2775 0.0 0.0
0.28 0.0 0.0
0.28250000000000003 0.0 0.0
0.28500000000000003 0.0 0.0
0.28750000000000003 0.0 0.0
0.29 0.0 0.0
0.2925 0.0 0.0
0.295 0.0 0.0
0.2975 0.0 0.0
0.3 0.0 0.0
0.3025 0.0 0.0
0.305 0.0 0.0
0.3075 0.0 0.0
0.31 0.0 0.0
0.3125 0.0 0.0
0.315 0.0 0.0
0.3175 0.0 0.0
0.32 0.0 0.0
0.3225 0.0 0.0
0.325 0.0 0.0
0.3275 0.0 0.0
0.33 0.0 0.0
0.3325 0.0 0.0
0.335 0.0 0.0
0.3375 0.0 0.0
0.34 0.0 0.0
0.3425 0.0 0.0
0.34500000000000003 0.0 0.0
0.34750000000000003 0.0 0.0
0.35000000000000003 0.0 0.0
0.3525 0.0 0.0
0.355 0.0 0.0
0.3575 0.0 0.0
0.36 0.0 0.0
0.3625 0.0 0.0
0.365 0.0 0.0
0.3675 0.0 0.0
0.37 0.0 0.0
0.3725 0.0 0.0
0.375 0.0 0.0
0.3775 0.0 0.0
0.38 0.0 0.0
0.3825 0.0 0.0
0.385 0.0 0.0
0.3875 0.0 0.0
0.39 0.0 0.0
0.3925 0.0 0.0
0.395 0.0 0.0
0.3975 0.0 0.0
0.4 0.0 0.0
0.4025 0.0 0.0
0.405 0.0 0.0
0.40750000000000003 0.0 0.0
0.41000000000000003 0.0 0.0
0.41250000000000003 0.0 0.0
0.41500000000000004 0.0 0.0
0.4175 0.0 0.0
0.42 0.0 0.0
0.4225 0.0 0.0
0.425 0.0 0.0
0.4275 0.0 0.0
0.43 0.0 0.0
0.4325 0.0 0.0
0.435 0.0 0.0
0.4375 0.0 0.0
0.44 0.0 0.0
0.4425 0.0 0.0
0.445 0.0 0.0
0.4475 0.0 0.0
0.45 0.0 0.0
0.4525 0.0 0.0
0.455 0.0 0.0
0.4575 0.0 0.0
0.46 0.0 0.0
0.4625 0.0 0.0
0.465 0.0 0.0
0.4675 0.0 0.0
0.47000000000000003 0.0 0.0
0.47250000000000003 0.0 0.0
0.47500000000000003 0.0 0.0
0.47750000000000004 0.0 0.0
0.48 0.0 0.0
0.4825 0.0 0.0
0.485 0.0 0.0
0.4875 0.0 0.0
0.49 0.0 0.0
0.4925 0.0 0.0
0.495 0.0 0.0
0.4975 0.0 0.0
0.0025 0.1 0.0
0.005 0.1 0.0
0.0075 0.1 0.0
0.01 0.1 0.0
0.0125 0.1 0.0
0.015 0.1 0.0
0.0175 0.1 0.0
0.02 0.1 0.0
0.0225 0.1 0.0
0.025 0.1 0.0
0.0275 0.1 0.0
0.03 0.1 0.0
0.0325 0.1 0.0
0.035 0.1 0.0
0.0375 0.1 0.0
0.04 0.1 0.0
0.0425 0.1 0.0
0.045 0.1 0.0
0.0475 0.1 0.0
0.05 0.1 0.0
0.0525 0.1 0.0
0.055 0.1 0.0
0.0575 0.1 0.0
0.06 0.1 0.0
0.0625 0.1 0.0
0.065 0.1 0.0
0.0675 0.1 0.0
0.07 0.1 0.0
0.0725 0.1 0.0
0.075 0.1 0.0
0.0775 0.1 0.0
0.08 0.1 0.0
0.0825 0.1 0.0
0.085 0.1 0.0
0.08750000000000001 0.1 0.0
0.09 0.1 0.0
0.0925 0.1 0.0
0.095 0.1 0.0
0.0975 0.1 0.0
0.1 0.1 0.0
0.10250000000000001 0.1 0.0
0.105 0.1 0.0
0.1075 0.1 0.0
0.11 0.1 0.0
0.1125 0.1 0.0
0.115 0.1 0.0
0.11750000000000001 0.1 0.0
0.12 0.1 0.0
0.1225 0.1 0.0
0.125 0.1 0.0
0.1275 0.1 0.0
0.13 0.1 0.0
0.1325 0.1 0.0
0.135 0.1 0.0
0.1375 0.1 0.0
0.14 0.1 0.0
0.14250000000000002 0.1 0.0
0.145 0.1 0.0
0.1475 0.1 0.0
0.15 0.1 0.0
0.1525 0.1 0.0
0.155 0.1 0.0
0.1575 0.1 0.0
0.16 0.1 0.0
0.1625 0.1 0.0
0.165 0.1 0.0
0.1675 0.1 0.0
0.17 0.1 0.0
0.17250000000000001 0.1 0.0
0.17500000000000002 0.1 0.0
0.1775 0.1 0.0
0.18 0.1 0.0
0.1825 0.1 0.0
0.185 0.1 0.0
0.1875 0.1 0.0
0.19 0.1 0.0
0.1925 0.1 0.0
0.195 0.1 0.0
0.1975 0.1 0.0
0.2 0.1 0.0
0.2025 0.1 0.0
0.20500000000000002 0.1 0.0
0.20750000000000002 0.1 0.0
0.21 0.1 0.0
0.2125 0.1 0.0
0.215 0.1 0.0
0.2175 0.1 0.0
0.22 0.1 0.0
0.2225 0.1 0.0
0.225 0.1 0.0
0.2275 0.1 0.0
0.23 0.1 0.0
0.2325 0.1 0.0
0.23500000000000001 0.1 0.0
0.23750000000000002 0.1 0.0
0.24 0.1 0.0
0.2425 0.1 0.0
0.245 0.1 0.0
0.2475 0.1 0.0
0.25 0.1 0.0
0.2525 0.1 0.0
0.255 0.1 0.0
0.2575 0.1 0.0
0.26 0.1 0.0
0.2625 0.1 0.0
0.265 0.1 0.0
0.2675 0.1 0.0
0.27 0.1 0.0
0.2725 0.1 0.0
0.275 0.1 0.0
0.2775 0.1 0.0
0.28 0.1 0.0
0.28250000000000003 0.1 0.0
0.28500000000000003 0.1 0.0
0.28750000000000003 0.1 0.0
0.29 0.1 0.0
0.2925 0.1 0.0
0.295 0.1 0.0
0.2975 0.1 0.0
0.3 0.1 0.0
0.3025 0.1 0.0
0.305 0.1 0.0
0.3075 0.1 0.0
0.31 0.1 0.0
0.3125 0.1 0.0
0.315 0.1 0.0
0.3175 0.1 0.0
0.32 0.1 0.0
0.3225 0.1 0.0
0.325 0.1 0.0
0.3275 0.1 0.0
0.33 0.1 0.0
0.3325 0.1 0.0
0.335 0.1 0.0
0.3375 0.1 0.0
0.34 0.1 0.0
0.3425 0.1 0.0
0.34500000000000003 0.1 0.0
0.34750000000000003 0.1 0.0
0.35000000000000003 0.1 0.0
0.3525 0.1 0.0
0.355 0.1 0.0
0.3575 0.1 0.0
0.36 0.1 0.0
0.3625 0.1 0.0
0.365 0.1 0.0
0.3675 0.1 0.0
0.37 0.1 0.0
0.3725 0.1 0.0
0.375 0.1 0.0
0.3775 0.1 0.0
0.38 0.1 0.0
0.3825 0.1 0.0
0.385 0.1 0.0
0.3875 0.1 0.0
0.39 0.1 0.0
0.3925 0.1 0.0
0.395 0.1 0.0
0.3975 0.1 0.0
0.4 0.1 0.0
0.4025 0.1 0.0
0.405 0.1 0.0
0.40750000000000003 0.1 0.0
0.41000000000000003 0.1 0.0
0.41250000000000003 0.1 0.0
0.41500000000000004 0.1 0.0
0.4175 0.1 0.0
0.42 0.1 0.0
0.4225 0.1 0.0
0.425 0.1 0.0
0.4275 0.1 0.0
0.43 0.1 0.0
0.4325 0.1 0.0
0.435 0.1 0.0
0.4375 0.1 0.0
0.44 0.1 0.0
0.4425 0.1 0.0
0.445 0.1 0.0
0.4475 0.1 0.0
0.45 0.1 0.0
0.4525 0.1 0.0
0.455 0.1 0.0
0.4575 0.1 0.0
0.46 0.1 0.0
0.4625 0.1 0.0
0.465 0.1 0.0
0.4675 0.1 0.0
0.47000000000000003 0.1 0.0
0.47250000000000003 0.1 0.0
0.47500000000000003 0.1 0.0
0.47750000000000004 0.1 0.0
0.48 0.1 0.0
0.4825 0.1 0.0
0.485 0.1 0.0
0.4875 0.1 0.0
0.49 0.1 0.0
0.4925 0.1 0.0
0.495 0.1 0.0
0.4975 0.1 0.0
0.0 0.0025 0.0
0.0 0.005 0.0
0.0 0.0075 0.0
0.0 0.01 0.0
0.0 0.0125 0.0
0.0 0.015 0.0
0.0 0.0175 0.0
0.0 0.02 0.0
0.0 0.0225 0.0
0.0 0.025 0.0
0.0 0.0275 0.0
0.0 0.03 0.0
0.0 0.0325 0.0
0.0 0.035 0.0
0.0 0.0375 0.0
0.0 0.04 0.0
0.0 0.0425 0.0
0.0 0.045 0.0
0.0 0.0475 0.0
0.0 0.05 0.0
0.0 0.0525 0.0
0.0 0.055 0.0
0.0 0.0575 0.0
0.0 0.06 0.0
0.0 0.0625 0.0
0.0 0.065 0.0
0.0 0.0675 0.0
0.0 0.07 0.0
0.0 0.0725 0.0
0.0 0.075 0.0
0.0 0.0775 0.0
0.0 0.08 0.0
0.0 0.0825 0.0
0.0 0.085 0.0
0.0 0.08750000000000001 0.0
0.0 0.09 0.0
0.0 0.0925 0.0
0.0 0.095 0.0
0.0 0.0975 0.0
0.5 0.0025 0.0
0.5 0.005 0.0
0.5 0.0075 0.0
0.5 0.01 0.0
0.5 0.0125 0.0
0.5 0.015 0.0
0.5 0.0175 0.0
0.5 0.02 0.0
0.5 0.0225 0.0
0.5 0.025 0.0
0.5 0.0275 0.0
0.5 0.03 0.0
0.5 0.0325 0.0
0.5 0.035 0.0
0.5 0.0375 0.0
0.5 0.04 0.0
0.5 0.0425 0.0
0.5 0.045 0.0
0.5 0.0475 0.0
0.5 0.05 0.0
0.5 0.0525 0.0
0.5 0.055 0.0
0.5 0.0575 0.0
0.5 0.06 0.0
0.5 0.0625 0.0
0.5 0.065 0.0
0.5 0.0675 0.0
0.5 0.07 0.0
0.5 0.0725 0.0
0.5 0.075 0.0
0.5 0.0775 0.0
0.5 0.08 0.0
0.5 0.0825 0.0
0.5 0.085 0.0
0.5 0.08750000000000001 0.0
0.5 0.09 0.0
0.5 0.0925 0.0
0.5 0.095 0.0
0.5 0.0975 0.0
0.0025 0.0025 0.0
0.005 0.0025 0.0
0.0075 0.0025 0.0
0.01 0.0025 0.0
0.0125 0.0025 0.0
0.015 0.0025 0.0
0.0175 0.0025 0.0
0.02 0.0025 0.0
0.0225 0.0025 0.0
0.025 0.0025 0.0
0.0275 0.0025 0.0
0.03 0.0025 0.0
0.0325 0.0025 0.0
0.035 0.0025 0.0
0.0375 0.0025 0.0
0.04 0.0025 0.0
0.0425 0.0025 0.0
0.045 0.0025 0.0
0.0475 0.0025 0.0
0.05 0.0025 0.0
0.0525 0.0025 0.0
0.055 0.0025 0.0
0.0575 0.0025 0.0
0.06 0.0025 0.0
0.0625 0.0025 0.0
0.065 0.0025 0.0
0.0675 0.0025 0.0
0.07 0.0025 0.0
0.0725 0.0025 0.0
0.075 0.0025 0.0
0.0775 0.0025 0.0
0.08 0.0025 0.0
0.0825 0.0025 0.0
0.085 0.0025 0.0
0.08750000000000001 0.0025 0.0
0.09 0.0025 0.0
0.0925 0.0025 0.0
0.095 0.0025 0.0
0.0975 0.0025 0.0
0.1 0.0025 0.0
0.10250000000000001 0.0025 0.0
0.105 0.0025 0.0
0.1075 0.0025 0.0
0.11 0.0025 0.0
0.1125 0.0025 0.0
0.115 0.0025 0.0
0.11750000000000001 0.0025 0.0
0.12 0.0025 0.0
0.1225 0.0025 0.0
0.125 0.0025 0.0
0.1275 0.0025 0.0
0.13 0.0025 0.0
0.1325 0.0025 0.0
0.135 0.0025 0.0
0.1375 0.0025 0.0
0.14 0.0025 0.0
0.14250000000000002 0.0025 0.0
0.145 0.0025 0.0
0.1475 0.0025 0.0
0.15 0.0025 0.0
0.1525 0.0025 0.0
0.155 0.0025 0.0
0.1575 0.0025 0.0
0.16 0.0025 0.0
0.1625 0.0025 0.0
0.165 0.0025 0.0
0.1675 0.0025 0.0
0.17 0.0025 0.0
0.17250000000000001 0.0025 0.0
0.17500000000000002 0.0025 0.0
0.1775 0.0025 0.0
0.18 0.0025 0.0
0.1825 0.0025 0.0
0.185 0.0025 0.0
0.1875 0.0025 0.0
0.19 0.0025 0.0
0.1925 0.0025 0.0
0.195 0.0025 0.0
0.1975 0.0025 0.0
0.2 0.0025 0.0
0.2025 0.0025 0.0
0.20500000000000002 0.0025 0.0
0.20750000000000002 0.0025 0.0
0.21 0.0025 0.0
0.2125 0.0025 0.0
0.215 0.0025 0.0
0.2175 0.0025 0.0
0.22 0.0025 0.0
0.2225 0.0025 0.0
0.225 0.0025 0.0
0.2275 0.0025 0.0
0.23 0.0025 0.0
0.2325 0.0025 0.0
0.23500000000000001 0.0025 0.0
0.23750000000000002 0.0025 0.0
0.24 0.0025 0.0
0.2425 0.0025 0.0
0.245 0.0025 0.0
0.2475 0.0025 0.0
0.25 0.0025 0.0
0.2525 0.0025 0.0
0.255 0.0025 0.0
0.2575 0.0025 0.0
0.26 0.0025 0.0
0.2625 0.0025 0.0
0.265 0.0025 0.0
0.2675 0.0025 0.0
0.27 0.0025 0.0
0.2725 0.0025 0.0
0.275 0.0025 0.0
0.2775 0.0025 0.0
0.28 0.0025 0.0
0.28250000000000003 0.0025 0.0
0.28500000000000003 0.0025 0.0
0.28750000000000003 0.0025 0.0
0.29 0.0025 0.0
0.2925 0.0025 0.0
0.295 0.0025 0.0
0.2975 0.0025 0.0
0.3 0.0025 0.0
0.3025 0.0025 0.0
0.305 0.0025 0.0
0.3075 0.0025 0.0
0.31 0.0025 0.0
0.3125 0.0025 0.0
0.315 0.0025 0.0
0.3175 0.0025 0.0
0.32 0.0025 0.0
0.3225 0.0025 0.0
[...]
CELL_DATA 8000
SCALARS phi float 1
LOOKUP_TABLE CellColors
1.3350822965547104
1.0122910147153235
0.8485695519604926
0.7433809895684568
0.677490141581299
0.6364260926032419
0.6096338839159413
0.5909077769026669
0.5768144075902956
0.5655093138144835
0.5559949179367706
0.5477085935031907
0.5403115524547436
0.5335846348204031
0.5273769312622894
0.5215795647424077
0.5161114175722248
0.5109107149967055
0.505929671052656
0.5011308746274995
0.49648474820210875
0.4919677115133613
0.4875608290728377
0.4832487992244367
0.47901918885119854
0.47486184730111825
0.4707684526987747
0.46673215720449346
0.4627473070827486
0.45880921996671037
0.45491400632538415
0.451058425439957
0.44723976857649383
0.4434557637770078
0.43970449796890665
0.43598435304444494
0.4322939532781258
0.42863212199484046
0.42499784582020517
0.42139024516942836
0.41780854988544475
0.41425207913804607
0.4107202248558318
0.4072124380912818
0.4037282178230984
0.4002671017844639
0.39682865897500497
0.3934124835711691
0.39001818999677723
0.3866454089545942
0.3832937842522957
0.37996297028341974
0.37665263004665717
0.37336243360591737
0.37009205690960795
0.36684118090102136
0.3636094908630495
0.36039667595000646
0.35720242886742537
0.3540264456675567
0.35086842563409887
0.34772807123458777
0.3446050881229541
0.3414991851781252
0.33841007456728633
0.3353374718246406
0.33228109593831634
0.32924066943959795
0.326215918489975
0.32320657296268857
0.3202123665165042
0.3172330366603322
0.3142683248080118
0.31131797632303493
0.30838174055321754
0.30545937085539393
0.3025506246102047
0.29965526322707514
0.2967730521396086
0.2939037607918568
0.29104716261622227
0.28820303500398603
0.28537115926956946
0.2825513206095576
0.27974330805730513
0.2769469144336823
0.2741619362943248
0.27138817387369807
0.2686254310263712
0.26587351516604496
0.26313223720299306
0.26040141148057955
0.25768085571140564
0.2549703909134762
0.25226984134665165
0.24957903444961785
0.24689780077764828
0.2442259739414784
0.24156339054757708
0.23890989013996822
0.236265315143589
0.23362951080907868
0.23100232515894892
0.22838360893526835
0.22577321554917273
0.2231710010325209
0.22057682399180373
0.21799054556404235
0.21541202937411813
0.2128411414929381
0.2102777503961278
0.20772172692338103
0.20517294423891852
0.20263127779348553
0.2000966052879664
0.19756880663821177
0.19504776394038303
0.1925333614361594
0.1900254854774688
0.18752402449075548
0.18502886894097664
0.18253991129550282
0.18005704598798805
0.1775801693822344
0.17510917973606627
0.17264397716518043
0.17018446360674527
0.1677305427823407
0.16528212015986046
0.16283910291438047
0.16040139988851043
0.15796892155300432
0.15554157996811355
0.15311928874550867
0.1507019630100871
0.14828951936109153
0.14588187583259976
0.14347895185408308
0.1410806682118192
0.13868694701149176
0.13629771164178558
0.13391288673866997
0.13153239815032036
0.12915617290284853
0.12678413916694237
0.12441622622536534
0.1220523644414322
0.11969248522898324
0.1173365210244926
0.1149844052613653
0.1126360723456959
0.1102914576326743
0.10795049740364968
0.10561312884462966
0.10327929002680258
0.10094891988891905
0.09862195822121439
0.09629834565103074
0.09397802363027863
0.09166093442398328
0.08934702109870815
0.08703622751070209
0.08472849829515587
0.08242377885789448
0.08012201536887062
0.07782315475529533
0.07552714469326284
0.0732339335989238
0.07094347062018186
0.06865570562794884
0.0663705892057854
0.06408807263872657
0.06180810790140183
0.05953064764293881
0.05725564516723992
0.054983054411796614
0.05271282992706973
0.05044492684907933
0.04817930086412786
0.045915908164287166
0.04365470541143969
0.041395649666206846
0.03913869834744625
0.03688380909834811
0.03463093983193688
0.03238004837821421
0.030131092826393084
0.02788403042977358
0.02563881926812093
0.02339541463283089
0.021153775006460457
0.01891385194783463
0.016675602151326487
0.014438993672182559
0.01220388912156263
0.00997070177813296
0.00773743015776334
0.005512474120531489
0.0032573470600626726
0.0010465968063946096
1.044791435220647
0.9179032543388119
0.8238882575379776
0.7494623749724405
0.6944851121375345
0.6550740177541519
0.6264283766248316
0.6049692053799888
0.588306483331722
0.5748916040428099
0.563727663518665
0.5541664213391077
0.5457775274416413
0.53826776701212
0.5314318450464326
0.5251222533541402
0.5192305195994722
0.5136752618231655
0.5083943711388005
0.5033397551678369
0.49847371224277937
0.4937663724967866
0.4891938549236733
0.48473691608867325
0.48037994341662255
0.4761101944077498
0.47191721426747324
0.4677923849156549
0.4637285720790223
0.4597198465473278
0.45576126217316626
0.4518486777640107
0.44797861326890165
0.44414813300869727
0.4403547504111712
0.4365963499762697
0.43287112314024595
0.42917751541900173
0.4255141827531957
0.42187995539488526
0.4182738079994543
0.4146948348403863
0.4111422292649459
0.4076152666684637
0.40411329039291755
0.4006357000588754
0.39718194192385126
0.3937515009287695
0.3903438941506544
0.38695866542622975
0.3835953809497067
0.38025362568011906
0.37693300042033007
0.37363311945218036
0.37035360863094946
0.36709410385798735
0.36385424986355935
0.3606336992430845
0.3574321116993586
0.3542491534513427
0.35108449677686265
0.3479378196622671
0.34480880553686744
0.3416971430739247
0.33860252604318214
0.3355246532025885
0.3324632282190537
0.3294179596099429
0.32638856069865885
0.3233747495791258
0.3203762490852956
0.31739278676288574
0.3144240948414122
0.31146991020515313
0.3085299743619995
0.30560403340930964
0.3026918379959773
0.29979314328007534
0.2969077088816937
0.2940352988309536
0.2911756815115518
0.2883286296004782
0.2854939200046519
0.2826713337951306
0.2798606561393309
0.2770616762314659
0.27427418722128405
0.2714979861412302
0.26873287383230793
0.26597865486911065
0.26323513748458593
0.26050213349506335
0.25777945822592646
0.2550669304381501
0.2523643722558402
0.24967160909494152
0.24698846959336807
0.2443147855428578
0.24165039182278447
0.23899512633598885
0.23634882994652046
0.23371134641913044
0.2310825223604862
0.22846220716229998
0.22585025294672112
0.22324651451426508
0.22065084929425144
0.21806311729732492
0.21548318106942313
0.21291090564665305
0.21034615851094746
0.20778880954680506
0.20523873099961645
0.2026957974358777
0.20015988570513665
0.19763087490308007
0.19510864633504055
0.1925930834794049
0.19008407195076754
0.18758149946293878
0.18508525579195906
0.1825952327391816
0.18011132409441719
0.17763342559916284
0.17516143490994676
0.1726952515616949
0.17023477693077205
0.16777991419722374
0.16533056830595405
0.1628866459271015
0.1604480554163189
0.1580147067756349
0.1555865116150023
0.15316338311397792
0.15074523598279893
0.14833198642262574
0.14592355208546287
0.14351985203462095
0.14112080670625043
0.13872633787188032
0.13633636860159692
0.1339508232276994
0.13156962730898442
0.12919270759583273
0.12681999199608754
0.12445140954173659
0.12208689035679432
0.11972636562704875
0.11736976757200734
0.11501702941857855
0.1126680853755936
0.11032287060876295
0.10798132121665074
0.10564337420862141
0.10330896748504287
0.10097803981921147
0.09865053084061279
0.0963263810198032
0.09400553165497313
0.09168792485919652
0.08937350354741119
0.08706221142385767
0.08475399297169639
0.08244879344502805
0.08014655886142702
0.0778472359933
0.07555077235846587
0.07325711621128128
0.07096621653398323
0.06867802302658743
0.06639248609496909
0.06410955683902206
0.06182918704109562
0.05955132915135921
0.05727593626651241
0.05500296210329269
0.05273236097231235
0.05046408775032961
0.048198097849898314
0.04593434717016859
0.043672792054521146
0.04141338920348416
0.03915609565330462
0.03690086860069756
0.03464766550846062
0.03239644358982365
0.030147160444892712
0.027899772390727412
0.025654237261227862
0.023410508594446232
0.021168545757167843
0.01892829628849761
0.016689720565317277
0.01445277913889638
0.012217331565467995
0.009983813534654773
0.007750176175567258
0.00552454688185978
0.003272913750058656
0.0010525138855976206
0.9095895062621309
0.855204730357183
0.7970373089705589
0.7417814677385648
0.6959707168389456
0.6601897267097524
0.632578169408213
0.6110536840366954
0.5939141219088809
0.5799087269313878
0.568162283697106
0.5580713905903749
0.5492175900670585
0.5413059906357373
0.5341246697053603
0.5275183117876566
0.5213710078130751
0.5155948505158572
0.5101222168574122
0.5049004350376138
0.4998880261605994
0.4950520079106062
0.4903659286966659
0.48580841319915413
0.48136207170287004
0.47701267200571057
0.4727485034307317
0.4685598831824561
0.4644387694548094
0.4603784555164474
0.45637332588759627
0.45241866061139097
0.44851047713134246
0.4446454018321282
0.4408205651674083
0.4370335156812071
0.4332821492642679
0.42956465076887806
0.4258794457023036
0.4222251601783156
0.4186005876629987
0.41500466133037367
0.41143643106383326
0.4078950443147397
0.4043797301699472
0.4008897860932287
0.39742456689743416
0.39398347557914004
0.39056595570902447
0.38717148512187943
0.383799570692095
0.3804497440152597
0.3771215578455036
0.37381458316240446
0.3705284067615042
0.3672626292794454
0.36401686357899166
0.36079073343123613
0.3575838724424914
0.3543959231819963
0.35122653647390356
0.3480753708231911
0.3449420919503171
0.34182637241372693
0.3387278913028504
0.33564633398713706
0.33258139190911085
0.3295327624115124
0.32650014859043996
0.32348325916804604
0.320481808379801
0.3174955158725452
0.31452410661049357
0.31156731078699346
0.308624863740229
0.30569650587128955
0.3027819825632049
0.29988104409979854
0.29699344558356083
0.29411894685218093
0.29125731239378916
0.28840831126125244
0.28557171698595174
0.2827473074913706
0.2799348650066208
0.2771341759798519
0.27434503099144664
0.27156722466701255
0.26880055559038823
0.2660448262170643
0.2632998427884844
0.26056541524760846
0.2578413571559487
0.2551274856121484
0.25242362117214345
0.2497295877710377
0.24704521264694307
0.24437032626708077
0.24170476225633622
0.2390483573282588
0.2364009512183266
0.23376238661927815
0.23113250911848368
0.2285111671375578
0.22589821187454406
0.22329349724887132
0.22069687984895528
0.2181082188819568
0.2155273761250867
0.2129542158780347
0.21038860491652217
0.20783041244732756
0.20527951006519282
0.2027357717117167
0.20019907363590234
0.19766929435572245
0.19514631462009674
0.19263001737095814
0.19012028770538858
0.1876170128379258
0.1851200820630659
0.18262938671788076
0.1801448201446738
0.17766627765370474
0.17519365648603363
0.1727268557763776
0.1702657765156161
0.167810321512534
0.1653603953546885
0.16291590436878597
0.1604767565812097
0.15804286167908538
0.15561413097165944
0.15319047735134697
0.15077181525398212
0.148358060618476
0.14594913084662886
0.14354494476380117
0.14114542258057158
0.13875048585502647
0.13636005745534574
0.13397406152275407
0.13159242343514727
0.1292150697715572
0.12684192827743196
0.1244729278308696
0.1221079984103122
0.11974707106416041
0.1173900778821807
0.11503695196803419
0.11268762741246625
0.11034203926742484
0.10800012352179575
0.10566181707914993
0.10332705773738649
0.10099578417001845
0.09866793590907211
0.09634345332956169
0.09402227763503786
0.09170435084348355
0.08938961577366514
0.08707801603319248
0.08476949600905241
0.0824640008593775
0.08016147650449836
0.0778618696171752
0.07556512761332992
0.0732711986436137
0.07098003158452855
0.06869157602846789
0.06640578227267913
0.06412260130707406
0.06184198480007851
0.05956388508308441
0.05728825513220877
0.05501504854385918
0.052744219505871166
0.05047572276649365
0.048209513608869645
0.04594554779630632
0.043683781534208155
0.04142417136212668
0.03916667418719383
0.03691124701144566
0.034657847208845405
0.03240643163122674
0.030156957998790944
0.02790938173416474
0.025663661655409196
0.023419748328285292
0.021177605421223527
0.01893716968255841
0.01669841845070498
0.014461270374609442
0.012225662402571048
0.009991792974255901
0.007758375136027016
0.005530218905148371
0.003289518411173337
0.0010594804974048081
0.8238764702386916
0.8004369325903835
0.7655346984738168
0.7271973669215632
0.6920072668521147
0.6619956125044579
0.6370898639415095
0.6165515394711645
0.5995221901975148
0.5852271640046302
0.5730380931106477
0.5624705384919189
0.5531589629334985
0.5448290865822558
0.5372744993145302
0.5303387275146696
0.5239020516704104
0.5178719706182133
0.5121763192932991
0.5067582773349948
0.5015727191483832
0.49658351930191313
0.4917615434524798
0.48708313563254213
0.48252896830591246
0.47808316003329343
0.47373259237128384
0.46946637645142764
0.4652754330251295
0.46115215928782627
0.45709016265201113
0.45308404660891116
0.4491292374483635
0.4452218432773226
0.44135853875803516
0.43753647046729305
0.4337531788935687
0.4300065339360655
0.426294681418437
0.4226159986306267
0.41896905730175865
0.41535259271226144
0.41176547789439355
0.4082067020619471
0.4046753525632766
0.40117059977532876
0.3976916844564855
0.3942379071576093
0.3908086193575345
0.38740321604426586
0.38402112950863665
0.38066182415489547
0.3773247921640627
0.37400954987206303
0.37071563474651525
0.36744260286440117
0.36419002680825047
0.36095749391150334
0.35774460479473835
0.3545509721438168
0.35137621968893473
0.34821998135027343
0.3450819005215673
0.34196162946757447
0.3388588288153103
0.3357731671221108
0.3327043205063043
0.3296519723286092
0.3266158129144481
0.3235955393092156
0.32059085506014895
0.3176014700197991
0.314627100167134
0.31166746744304025
0.3087222995974575
0.30579133004572023
0.3028742977319704
0.2999709469978785
0.2970810274553657
0.29420429386252195
0.2913405060023613
0.28848942856433824
0.28565083102862354
0.28282448755304335
0.2800101768624249
0.27720768213999747
0.27441679092054855
0.27163729498522127
0.2688689902580821
0.26611167670474706
0.263365158233368
0.2606292425981471
0.2579037413053716
0.25518846952185836
0.25248324598574534
0.2497878929197252
0.2471022359469708
0.24442610401003229
0.24175932929283922
0.2391017471457157
0.23645319601314402
0.23381351736402783
0.23118255562440418
0.22856015811278382
0.2259461749783939
0.22334045914243716
0.2207428662421646
0.2181532545772693
0.21557148505807527
0.2129974211552279
0.21043092885096537
0.20787187659226017
0.2053201352460474
0.2027755780564177
0.20023808060332177
0.19770752076221804
0.19518377866427283
0.19266673665700404
0.19015627926541911
0.18765229315364074
0.18515466708683992
0.18266329189323774
0.18017806042605716
0.17769886752550068
0.17522560998085746
0.172758186492657
0.170296497634549
0.16784044581459712
0.16538993523598702
0.16294487185752113
0.16050516335431136
0.1580707190787103
0.15564145002105365
0.15321726876973202
0.15079808947057316
0.1483838277861299
0.1459744008556196
0.1435697272558235
0.14116972696263103
0.13877432131273298
0.13638343296533326
0.13399698586422684
0.1316149052006795
0.1292371173772664
0.12686354997266758
0.12449413170761794
0.12212879241241237
0.11976746299607428
0.11741007541672498
0.11505656265261266
0.11270685867398891
0.11036089841669146
0.10801861775796145
0.10567995349410225
0.10334484331939238
0.1010132258063933
0.09868504038816694
0.09636022734217452
0.09403872777490693
0.09172048360690893
0.08940543755919464
0.08709353314219488
0.08478471464666909
0.082478927134566
0.08017611642877995
0.07787622910314344
0.07557921247388784
0.07328501459164792
0.07099358423231492
0.06870487088767016
0.06641882475620071
0.06413539673207166
0.061854538388880234
0.05957620196163198
0.057300340330198776
0.055026907000812586
0.05275585608069451
0.05048714224287939
0.04822072070236677
0.04595654715553827
0.04369457776515503
0.041434769014644164
0.03917707782904442
0.036921461128088126
0.0346678764527601
0.03241628036997789
0.03016663127900491
0.027918883398669284
0.02567299805170048
0.02342892068120081
0.021186624701953673
0.01894602517824214
0.01670714057940477
0.014469789606581993
0.01223411928612191
0.009999740953268813
0.007766873952168043
0.005535485415832842
0.0033030394998223075
0.0010649083844845538
0.7700365764463568
0.7592325585114015
0.7378471330404675
0.71132057904672
0.684746996986701
0.6603128162904874
0.6386995007766686
0.6199211611203677
0.6036991408741159
0.5896551791920068
0.5774113283019343
0.5666327485036603
0.5570396331313674
0.548405111912621
0.5405479938324735
0.5333244820938823
0.5266205735642262
0.5203456908631996
0.5144275804383693
0.5088083167062984
0.5034412058720796
0.49828839590363205
0.49331903089223433
0.4885078216593659
0.4838339338367509
0.47928011831233774
0.4748320272709453
0.4704776729817783
0.46620699695308027
0.4620115249113279
0.45788408892533183
0.4538186023876517
0.44980987686509877
0.4458534723179426
0.4419455740718362
0.43808289136099804
0.4342625733591807
0.4304821394602334
0.42673942122468406
0.4230325139188263
0.4193597359726942
0.415719594998792
0.41211075926380936
0.40853203370545643
0.40498233974711567
0.40146069829267494
0.39796621538922805
0.39449807013129795
0.39105550445075943
0.3876378144947433
0.3842443433418858
0.380874474847182
0.3775276284389224
0.37420325471890303
0.37090083174030314
0.36761986185709705
0.3643598690552578
0.3611203966898817
0.35790100556412124
0.3547012722958166
0.3515207879262036
0.34835915673226536
0.3452159952103304
0.3420909312035629
0.3389836031501908
0.33589365943283134
0.33282075781226306
0.32976456493159617
0.32672475587909783
0.3237010137999772
0.32069302954921564
0.3177005013790037
0.31472313465549306
0.3117606416004049
0.3088127410536162
0.30587915825330764
0.30295962463068704
0.30005387761680696
0.29716166045955683
0.29428272204947703
0.29141681675350833
0.2885637042560626
0.28572314940687393
0.28289492207501743
0.28007879700839633
0.2772745536980137
0.2744819762464983
0.27170085324062815
0.2689309776278423
0.2661721465968588
0.26342416146246395
0.26068682755436606
0.2579599541098401
0.25524335416985783
0.2525368444785374
0.24984024538597693
0.24715338075471607
0.2444760778700652
0.24180816735435506
0.23914948308489598
0.23649986211527857
0.23385914459969648
0.23122717372019697
0.2286037956169962
0.22598885932206642
0.22338221669603123
0.22078372236812246
0.21819323367874066
0.21561061062419518
0.21303571580343067
0.2104684143668187
0.20790857396715812
0.20535606471286363
0.20281075912302343
0.2002725320838526
0.19774126080614504
0.19521682478358965
0.19269910575200405
0.19018798764949957
0.18768335657735633
0.18518510076119515
0.1826931105120902
0.18020727818753823
0.17772749815246586
0.17525366674045667
0.1727856822151489
0.17032344473152072
0.16786685629682374
0.1654158207311915
0.16297024362816753
0.16053003231527246
0.15809509581438114
0.15566534480148939
0.15324069156574158
0.15082104996816648
0.14840633540090242
0.14599646474738495
0.1435913563432881
0.14119092993757848
0.1387951066532855
0.13640380894821266
0.13401696057619944
0.131634486549388
0.12925631310158942
0.12688236765274238
0.12451257877460703
0.12214687615784396
0.119785190580292
0.11742745387601279
0.11507359890502598
0.11272355952441715
0.11037727056172413
0.10803466779070088
0.10569568790860442
0.10336026851434368
0.10102834808791372
0.09869986597183603
0.09637476235431294
0.09405297825322324
0.09173445550111514
0.08941913673233987
0.0871069653725598
0.08479788562906157
0.0824918424804173
0.08018878166591328
0.07788864967649865
0.07559139374738005
0.07329696185082957
0.07100530268751643
0.06871636567753946
0.06643010095130739
0.06414645934037527
0.06186539236414046
0.059586852213614955
0.0573107917330227
0.05503716440347936
0.05276592432565852
0.05049702618773355
0.048230425244326164
0.04596607724592266
0.043703938466173126
0.04144396549977508
0.03918611552037543
0.03693034555672866
0.03467661371584695
0.03242487642881293
0.030175093621074744
0.02792721796474775
0.025681215641294254
0.023437024273596365
0.02119463527278754
0.018953928569883025
0.01671499762097473
0.014477499015397056
0.01224193782123344
0.010007084222125269
0.007775166076356139
0.005541122887820186
0.0033154947625970723
0.0010706921183272747
0.7334704310458302
0.7278434456290839
0.7141826652536524
0.6955938631709672
0.6756049376549519
0.6560625711837669
0.6378295409799966
0.6212448375523669
0.6063524391896677
0.5930423157596763
0.5811387803955089
0.5704502861851546
0.5607943473686423
0.5520082006565614