# vtk DataFile Version 3.0
jCFD simulation data
ASCII
DATASET UNSTRUCTURED_GRID
POINTS 8241 double
0.0 0.0 0.0
0.5 0.0 0.0
0.0 0.1 0.0
0.5 0.1 0.0
0.0025 0.0 0.0
0.005 0.0 0.0
0.0075 0.0 0.0
0.01 0.0 0.0
0.0125 0.0 0.0
0.015 0.0 0.0
0.0175 0.0 0.0
0.02 0.0 0.0
0.0225 0.0 0.0
0.025 0.0 0.0
0.0275 0.0 0.0
0.03 0.0 0.0
0.0325 0.0 0.0
0.035 0.0 0.0
0.0375 0.0 0.0
0.04 0.0 0.0
0.0425 0.0 0.0
0.045 0.0 0.0
0.0475 0.0 0.0
0.05 0.0 0.0
0.0525 0.0 0.0
0.055 0.0 0.0
0.0575 0.0 0.0
0.06 0.0 0.0
0.0625 0.0 0.0
0.065 0.0 0.0
0.0675 0.0 0.0
0.07 0.0 0.0
0.0725 0.0 0.0
0.075 0.0 0.0
0.0775 0.0 0.0
0.08 0.0 0.0
0.0825 0.0 0.0
0.085 0.0 0.0
0.08750000000000001 0.0 0.0
0.09 0.0 0.0
0.0925 0.0 0.0
0.095 0.0 0.0
0.0975 0.0 0.0
0.1 0.0 0.0
0.10250000000000001 0.0 0.0
0.105 0.0 0.0
0.1075 0.0 0.0
0.11 0.0 0.0
0.1125 0.0 0.0
0.115 0.0 0.0
0.11750000000000001 0.0 0.0
0.12 0.0 0.0
0.1225 0.0 0.0
0.125 0.0 0.0
0.1275 0.0 0.0
0.13 0.0 0.0
0.1325 0.0 0.0
0.135 0.0 0.0
0.1375 0.0 0.0
0.14 0.0 0.0
0.14250000000000002 0.0 0.0
0.145 0.0 0.0
0.1475 0.0 0.0
0.15 0.0 0.0
0.1525 0.0 0.0
0.155 0.0 0.0
0.1575 0.0 0.0
0.16 0.0 0.0
0.1625 0.0 0.0
0.165 0.0 0.0
0.1675 0.0 0.0
0.17 0.0 0.0
0.17250000000000001 0.0 0.0
0.17500000000000002 0.0 0.0
0.1775 0.0 0.0
0.18 0.0 0.0
0.1825 0.0 0.0
0.185 0.0 0.0
0.1875 0.0 0.0
0.19 0.0 0.0
0.1925 0.0 0.0
0.195 0.0 0.0
0.1975 0.0 0.0
0.2 0.0 0.0
0.2025 0.0 0.0
0.20500000000000002 0.0 0.0
0.20750000000000002 0.0 0.0
0.21 0.0 0.0
0.2125 0.0 0.0
0.215 0.0 0.0
0.2175 0.0 0.0
0.22 0.0 0.0
0.2225 0.0 0.0
0.225 0.0 0.0
0.2275 0.0 0.0
0.23 0.0 0.0
0.2325 0.0 0.0
0.23500000000000001 0.0 0.0
0.23750000000000002 0.0 0.0
0.24 0.0 0.0
0.2425 0.0 0.0
0.245 0.0 0.0
0.2475 0.0 0.0
0.25 0.0 0.0
0.2525 0.0 0.0
0.255 0.0 0.0
0.2575 0.0 0.0
0.26 0.0 0.0
0.2625 0.0 0.0
0.265 0.0 0.0
0.2675 0.0 0.0
0.27 0.0 0.0
0.2725 0.0 0.0
0.275 0.0 0.0
0.2775 0.0 0.0
0.28 0.0 0.0
0.28250000000000003 0.0 0.0
0.28500000000000003 0.0 0.0
0.28750000000000003 0.0 0.0
0.29 0.0 0.0
0.2925 0.0 0.0
0.295 0.0 0.0
0.2975 0.0 0.0
0.3 0.0 0.0
0.3025 0.0 0.0
0.305 0.0 0.0
0.3075 0.0 0.0
0.31 0.0 0.0
0.3125 0.0 0.0
0.315 0.0 0.0
0.3175 0.0 0.0
0.32 0.0 0.0
0.3225 0.0 0.0
0.325 0.0 0.0
0.3275 0.0 0.0
0.33 0.0 0.0
0.3325 0.0 0.0
0.335 0.0 0.0
0.3375 0.0 0.0
0.34 0.0 0.0
0.3425 0.0 0.0
0.34500000000000003 0.0 0.0
0.34750000000000003 0.0 0.0
0.35000000000000003 0.0 0.0
0.3525 0.0 0.0
0.355 0.0 0.0
0.3575 0.0 0.0
0.36 0.0 0.0
0.3625 0.0 0.0
0.365 0.0 0.0
0.3675 0.0 0.0
0.37 0.0 0.0
0.3725 0.0 0.0
0.375 0.0 0.0
0.3775 0.0 0.0
0.38 0.0 0.0
0.3825 0.0 0.0
0.385 0.0 0.0
0.3875 0.0 0.0
0.39 0.0 0.0
0.3925 0.0 0.0
0.395 0.0 0.0
0.3975 0.0 0.0
0.4 0.0 0.0
0.4025 0.0 0.0
0.405 0.0 0.0
0.40750000000000003 0.0 0.0
0.41000000000000003 0.0 0.0
0.41250000000000003 0.0 0.0
0.41500000000000004 0.0 0.0
0.4175 0.0 0.0
0.42 0.0 0.0
0.4225 0.0 0.0
0.425 0.0 0.0
0.4275 0.0 0.0
0.43 0.0 0.0
0.4325 0.0 0.0
0.435 0.0 0.0
0.4375 0.0 0.0
0.44 0.0 0.0
0.4425 0.0 0.0
0.445 0.0 0.0
0.4475 0.0 0.0
0.45 0.0 0.0
0.4525 0.0 0.0
0.455 0.0 0.0
0.4575 0.0 0.0
0.46 0.0 0.0
0.4625 0.0 0.0
0.465 0.0 0.0
0.4675 0.0 0.0
0.47000000000000003 0.0 0.0
0.47250000000000003 0.0 0.0
0.47500000000000003 0.0 0.0
0.47750000000000004 0.0 0.0
0.48 0.0 0.0
0.4825 0.0 0.0
0.485 0.0 0.0
0.4875 0.0 0.0
0.49 0.0 0.0
0.4925 0.0 0.0
0.495 0.0 0.0
0.4975 0.0 0.0
0.0025 0.1 0.0
0.005 0.1 0.0
0.0075 0.1 0.0
0.01 0.1 0.0
0.0125 0.1 0.0
0.015 0.1 0.0
0.0175 0.1 0.0
0.02 0.1 0.0
0.0225 0.1 0.0
0.025 0.1 0.0
0.0275 0.1 0.0
0.03 0.1 0.0
0.0325 0.1 0.0
0.035 0.1 0.0
0.0375 0.1 0.0
0.04 0.1 0.0
0.0425 0.1 0.0
0.045 0.1 0.0
0.0475 0.1 0.0
0.05 0.1 0.0
0.0525 0.1 0.0
0.055 0.1 0.0
0.0575 0.1 0.0
0.06 0.1 0.0
0.0625 0.1 0.0
0.065 0.1 0.0
0.0675 0.1 0.0
0.07 0.1 0.0
0.0725 0.1 0.0
0.075 0.1 0.0
0.0775 0.1 0.0
0.08 0.1 0.0
0.0825 0.1 0.0
0.085 0.1 0.0
0.08750000000000001 0.1 0.0
0.09 0.1 0.0
0.0925 0.1 0.0
0.095 0.1 0.0
0.0975 0.1 0.0
0.1 0.1 0.0
0.10250000000000001 0.1 0.0
0.105 0.1 0.0
0.1075 0.1 0.0
0.11 0.1 0.0
0.1125 0.1 0.0
0.115 0.1 0.0
0.11750000000000001 0.1 0.0
0.12 0.1 0.0
0.1225 0.1 0.0
0.125 0.1 0.0
0.1275 0.1 0.0
0.13 0.1 0.0
0.1325 0.1 0.0
0.135 0.1 0.0
0.1375 0.1 0.0
0.14 0.1 0.0
0.14250000000000002 0.1 0.0
0.145 0.1 0.0
0.1475 0.1 0.0
0.15 0.1 0.0
0.1525 0.1 0.0
0.155 0.1 0.0
0.1575 0.1 0.0
0.16 0.1 0.0
0.1625 0.1 0.0
0.165 0.1 0.0
0.1675 0.1 0.0
0.17 0.1 0.0
0.17250000000000001 0.1 0.0
0.17500000000000002 0.1 0.0
0.1775 0.1 0.0
0.18 0.1 0.0
0.1825 0.1 0.0
0.185 0.1 0.0
0.1875 0.1 0.0
0.19 0.1 0.0
0.1925 0.1 0.0
0.195 0.1 0.0
0.1975 0.1 0.0
0.2 0.1 0.0
0.2025 0.1 0.0
0.20500000000000002 0.1 0.0
0.20750000000000002 0.1 0.0
0.21 0.1 0.0
0.2125 0.1 0.0
0.215 0.1 0.0
0.2175 0.1 0.0
0.22 0.1 0.0
0.2225 0.1 0.0
0.225 0.1 0.0
0.2275 0.1 0.0
0.23 0.1 0.0
0.2325 0.1 0.0
0.23500000000000001 0.1 0.0
0.23750000000000002 0.1 0.0
0.24 0.1 0.0
0.2425 0.1 0.0
0.245 0.1 0.0
0.2475 0.1 0.0
0.25 0.1 0.0
0.2525 0.1 0.0
0.255 0.1 0.0
0.2575 0.1 0.0
0.26 0.1 0.0
0.2625 0.1 0.0
0.265 0.1 0.0
0.2675 0.1 0.0
0.27 0.1 0.0
0.2725 0.1 0.0
0.275 0.1 0.0
0.2775 0.1 0.0
0.28 0.1 0.0
0.28250000000000003 0.1 0.0
0.28500000000000003 0.1 0.0
0.28750000000000003 0.1 0.0
0.29 0.1 0.0
0.2925 0.1 0.0
0.295 0.1 0.0
0.2975 0.1 0.0
0.3 0.1 0.0
0.3025 0.1 0.0
0.305 0.1 0.0
0.3075 0.1 0.0
0.31 0.1 0.0
0.3125 0.1 0.0
0.315 0.1 0.0
0.3175 0.1 0.0
0.32 0.1 0.0
0.3225 0.1 0.0
0.325 0.1 0.0
0.3275 0.1 0.0
0.33 0.1 0.0
0.3325 0.1 0.0
0.335 0.1 0.0
0.3375 0.1 0.0
0.34 0.1 0.0
0.3425 0.1 0.0
0.34500000000000003 0.1 0.0
0.34750000000000003 0.1 0.0
0.35000000000000003 0.1 0.0
0.3525 0.1 0.0
0.355 0.1 0.0
0.3575 0.1 0.0
0.36 0.1 0.0
0.3625 0.1 0.0
0.365 0.1 0.0
0.3675 0.1 0.0
0.37 0.1 0.0
0.3725 0.1 0.0
0.375 0.1 0.0
0.3775 0.1 0.0
0.38 0.1 0.0
0.3825 0.1 0.0
0.385 0.1 0.0
0.3875 0.1 0.0
0.39 0.1 0.0
0.3925 0.1 0.0
0.395 0.1 0.0
0.3975 0.1 0.0
0.4 0.1 0.0
0.4025 0.1 0.0
0.405 0.1 0.0
0.40750000000000003 0.1 0.0
0.41000000000000003 0.1 0.0
0.41250000000000003 0.1 0.0
0.41500000000000004 0.1 0.0
0.4175 0.1 0.0
0.42 0.1 0.0
0.4225 0.1 0.0
0.425 0.1 0.0
0.4275 0.1 0.0
0.43 0.1 0.0
0.4325 0.1 0.0
0.435 0.1 0.0
0.4375 0.1 0.0
0.44 0.1 0.0
0.4425 0.1 0.0
0.445 0.1 0.0
0.4475 0.1 0.0
0.45 0.1 0.0
0.4525 0.1 0.0
0.455 0.1 0.0
0.4575 0.1 0.0
0.46 0.1 0.0
0.4625 0.1 0.0
0.465 0.1 0.0
0.4675 0.1 0.0
0.47000000000000003 0.1 0.0
0.47250000000000003 0.1 0.0
0.47500000000000003 0.1 0.0
0.47750000000000004 0.1 0.0
0.48 0.1 0.0
0.4825 0.1 0.0
0.485 0.1 0.0
0.4875 0.1 0.0
0.49 0.1 0.0
0.4925 0.1 0.0
0.495 0.1 0.0
0.4975 0.1 0.0
0.0 0.0025 0.0
0.0 0.005 0.0
0.0 0.0075 0.0
0.0 0.01 0.0
0.0 0.0125 0.0
0.0 0.015 0.0
0.0 0.0175 0.0
0.0 0.02 0.0
0.0 0.0225 0.0
0.0 0.025 0.0
0.0 0.0275 0.0
0.0 0.03 0.0
0.0 0.0325 0.0
0.0 0.035 0.0
0.0 0.0375 0.0
0.0 0.04 0.0
0.0 0.0425 0.0
0.0 0.045 0.0
0.0 0.0475 0.0
0.0 0.05 0.0
0.0 0.0525 0.0
0.0 0.055 0.0
0.0 0.0575 0.0
0.0 0.06 0.0
0.0 0.0625 0.0
0.0 0.065 0.0
0.0 0.0675 0.0
0.0 0.07 0.0
0.0 0.0725 0.0
0.0 0.075 0.0
0.0 0.0775 0.0
0.0 0.08 0.0
0.0 0.0825 0.0
0.0 0.085 0.0
0.0 0.08750000000000001 0.0
0.0 0.09 0.0
0.0 0.0925 0.0
0.0 0.095 0.0
0.0 0.0975 0.0
0.5 0.0025 0.0
0.5 0.005 0.0
0.5 0.0075 0.0
0.5 0.01 0.0
0.5 0.0125 0.0
0.5 0.015 0.0
0.5 0.0175 0.0
0.5 0.02 0.0
0.5 0.0225 0.0
0.5 0.025 0.0
0.5 0.0275 0.0
0.5 0.03 0.0
0.5 0.0325 0.0
0.5 0.035 0.0
0.5 0.0375 0.0
0.5 0.04 0.0
0.5 0.0425 0.0
0.5 0.045 0.0
0.5 0.0475 0.0
0.5 0.05 0.0
0.5 0.0525 0.0
0.5 0.055 0.0
0.5 0.0575 0.0
0.5 0.06 0.0
0.5 0.0625 0.0
0.5 0.065 0.0
0.5 0.0675 0.0
0.5 0.07 0.0
0.5 0.0725 0.0
0.5 0.075 0.0
0.5 0.0775 0.0
0.5 0.08 0.0
0.5 0.0825 0.0
0.5 0.085 0.0
0.5 0.08750000000000001 0.0
0.5 0.09 0.0
0.5 0.0925 0.0
0.5 0.095 0.0
0.5 0.0975 0.0
0.0025 0.0025 0.0
0.005 0.0025 0.0
0.0075 0.0025 0.0
0.01 0.0025 0.0
0.0125 0.0025 0.0
0.015 0.0025 0.0
0.0175 0.0025 0.0
0.02 0.0025 0.0
0.0225 0.0025 0.0
0.025 0.0025 0.0
0.0275 0.0025 0.0
0.03 0.0025 0.0
0.0325 0.0025 0.0
0.035 0.0025 0.0
0.0375 0.0025 0.0
0.04 0.0025 0.0
0.0425 0.0025 0.0
0.045 0.0025 0.0
0.0475 0.0025 0.0
0.05 0.0025 0.0
0.0525 0.0025 0.0
0.055 0.0025 0.0
0.0575 0.0025 0.0
0.06 0.0025 0.0
0.0625 0.0025 0.0
0.065 0.0025 0.0
0.0675 0.0025 0.0
0.07 0.0025 0.0
0.0725 0.0025 0.0
0.075 0.0025 0.0
0.0775 0.0025 0.0
0.08 0.0025 0.0
0.0825 0.0025 0.0
0.085 0.0025 0.0
0.08750000000000001 0.0025 0.0
0.09 0.0025 0.0
0.0925 0.0025 0.0
0.095 0.0025 0.0
0.0975 0.0025 0.0
0.1 0.0025 0.0
0.10250000000000001 0.0025 0.0
0.105 0.0025 0.0
0.1075 0.0025 0.0
0.11 0.0025 0.0
0.1125 0.0025 0.0
0.115 0.0025 0.0
0.11750000000000001 0.0025 0.0
0.12 0.0025 0.0
0.1225 0.0025 0.0
0.125 0.0025 0.0
0.1275 0.0025 0.0
0.13 0.0025 0.0
0.1325 0.0025 0.0
0.135 0.0025 0.0
0.1375 0.0025 0.0
0.14 0.0025 0.0
0.14250000000000002 0.0025 0.0
0.145 0.0025 0.0
0.1475 0.0025 0.0
0.15 0.0025 0.0
0.1525 0.0025 0.0
0.155 0.0025 0.0
0.1575 0.0025 0.0
0.16 0.0025 0.0
0.1625 0.0025 0.0
0.165 0.0025 0.0
0.1675 0.0025 0.0
0.17 0.0025 0.0
0.17250000000000001 0.0025 0.0
0.17500000000000002 0.0025 0.0
0.1775 0.0025 0.0
0.18 0.0025 0.0
0.1825 0.0025 0.0
0.185 0.0025 0.0
0.1875 0.0025 0.0
0.19 0.0025 0.0
0.1925 0.0025 0.0
0.195 0.0025 0.0
0.1975 0.0025 0.0
0.2 0.0025 0.0
0.2025 0.0025 0.0
0.20500000000000002 0.0025 0.0
0.20750000000000002 0.0025 0.0
0.21 0.0025 0.0
0.2125 0.0025 0.0
0.215 0.0025 0.0
0.2175 0.0025 0.0
0.22 0.0025 0.0
0.2225 0.0025 0.0
0.225 0.0025 0.0
0.2275 0.0025 0.0
0.23 0.0025 0.0
0.2325 0.0025 0.0
0.23500000000000001 0.0025 0.0
0.23750000000000002 0.0025 0.0
0.24 0.0025 0.0
0.2425 0.0025 0.0
0.245 0.0025 0.0
0.2475 0.0025 0.0
0.25 0.0025 0.0
0.2525 0.0025 0.0
0.255 0.0025 0.0
0.2575 0.0025 0.0
0.26 0.0025 0.0
0.2625 0.0025 0.0
0.265 0.0025 0.0
0.2675 0.0025 0.0
0.27 0.0025 0.0
0.2725 0.0025 0.0
0.275 0.0025 0.0
0.2775 0.0025 0.0
0.28 0.0025 0.0
0.28250000000000003 0.0025 0.0
0.28500000000000003 0.0025 0.0
0.28750000000000003 0.0025 0.0
0.29 0.0025 0.0
0.2925 0.0025 0.0
0.295 0.0025 0.0
0.2975 0.0025 0.0
0.3 0.0025 0.0
0.3025 0.0025 0.0
0.305 0.0025 0.0
0.3075 0.0025 0.0
0.31 0.0025 0.0
0.3125 0.0025 0.0
0.315 0.0025 0.0
0.3175 0.0025 0.0
0.32 0.0025 0.0
0.3225 0.0025 0.0
[...]
CELL_DATA 8000
SCALARS phi float 1
LOOKUP_TABLE CellColors
0.8132649462308905
0.5474404341072705
0.38925764159363535
0.30385602129419437
0.2564304919073077
0.22698421929943152
0.20639348942010738
0.19072686985822407
0.17818224389531476
0.1678164502638491
0.15906299314399408
0.1515463454201786
0.14500258518979883
0.13923962598739215
0.13411418440365974
0.12951717389831383
0.1253640014981687
0.12158795879526928
0.11813563841876733
0.11496369994991583
0.11203654703738926
0.10932462889772158
0.10680317691360874
0.10445124993551246
0.10225100258300363
0.10018711738574723
0.09824635919601231
0.0964172221076474
0.0946896472144422
0.09305479521746582
0.09150486186923926
0.09003292713149176
0.08863283106104501
0.087299070979726
0.08602671567458663
0.08481133328459053
0.08364893021737736
0.08253589900718539
0.08146897343860685
0.08044518963616837
0.0794618520868065
0.07851650378489289
0.07760689987993187
0.07673098434505475
0.07588686928938798
0.07507281662270625
0.07428722184208947
0.07352859974781989
0.07279557192022572
0.07208685580566118
0.07140125526577375
0.07073765244369268
0.0700950008004743
0.06947231917478851
0.0688686867175177
0.06828323855453884
0.06771516203792925
0.06716369345581094
0.06662811508283331
0.06610775246846867
0.06560197187879042
0.06511017782682932
0.0646318106455672
0.06416634407622658
0.06371328286214067
0.06327216035349864
0.06284253614011798
0.06242399373826566
0.06201613836294674
0.06161859481900602
0.061231005543238584
0.06085302882598222
0.060484337234563236
0.06012461625316518
0.0597735631451725
0.059430886035227996
0.05909630319969462
0.058769542546548065
0.058450341259340406
0.05813844557517555
0.057833610663701226
0.057535600573064644
0.05724418820945473
0.05695915531916937
0.0566802924460904
0.0564073988425415
0.05614028231731876
0.05587875901100285
0.05562265309542331
0.05537179640089206
0.055126027981445794
0.05488519363461701
0.054649145398000545
0.05441774105002995
0.05419084364613084
0.05396832112316431
0.05375004600409231
0.053535895229969314
0.05332575013642725
0.05311949657634085
0.052917025169502516
0.052718231635044584
0.05252301713607263
0.05233128854265897
0.0521429585044685
0.051957945223809955
0.05177617183847248
0.0515975653637663
0.05142205520336339
0.051249571312966306
0.05108004217951873
0.05091339284828455
0.05074954327657703
0.05058840730327199
0.05042989248951869
0.050273901007249835
0.050120331634919676
0.04996908277898429
0.04982005629455117
0.04967316175113225
0.04952832070019353
0.04938547046542111
0.04924456700131207
0.04910558644880748
0.04896852514744011
0.048833398024427974
0.04870023545091526
0.0485690788126637
0.04843997516860572
0.048312971452591925
0.04818810870489401
0.04806541680116814
0.047944910083894156
0.047826584205413025
0.04771041437571432
0.04759635508539849
0.04748434125693062
0.047374290675425354
0.04726610747051247
0.047159686366916885
0.04705491739411285
0.04695169074302105
0.04684990147663409
0.046749453837060875
0.046650264938928356
0.04655226769343475
0.046455412864030474
0.04635967020992696
0.04626502872447816
0.04617149601973966
0.04607909694470306
0.04598787155213455
0.04589787254749412
0.04580916236334833
0.04572181000478524
0.0456358878066685
0.04555146823329492
0.04546862083640143
0.045387409469704695
0.04530788983843239
0.04523010744185813
0.04515409594680276
0.04507987601121095
0.0450074545599908
0.04493682450086982
0.04486796485626495
0.0448008412780698
0.04473540690552383
0.04467160352142207
0.04460936295847483
0.04454860870540031
0.04448925766117983
0.04443122198580211
0.04437441099693122
0.044318733064513206
0.04426409745946146
0.04421041611820678
0.04415760529198951
0.04410558705811951
0.0440542906797127
0.044003653810403484
0.04395362355115129
0.043904157377552426
0.04385522396830622
0.04380680397916827
0.043758890822509826
0.04371149153070436
0.043664627799551645
0.04361833731301275
0.04357267539347215
0.04352771673023585
0.043483555829439254
0.04344030095730615
0.04339804328946981
0.04335673971616079
0.043315806473384226
0.043272767330409835
0.04321886953510674
0.0431249887908164
0.043019428227700975
0.9893779769960962
0.9258683913503958
0.8470090173632558
0.7696933931740015
0.7013290421431383
0.6435780386888473
0.5955647759372491
0.5556481965261022
0.522191884165112
0.49382087638020844
0.4694581680774853
0.4482840203277106
0.4296790538611631
0.4131731249807498
0.3984054387242956
0.38509527078811495
0.37302101832211226
0.36200530041328094
0.3519043035135869
0.3426000716558063
0.3339948444539961
0.3260068342442918
0.3185670296560885
0.31161674321474764
0.30510570695433553
0.298990577673533
0.29323375254218603
0.28780242264950484
0.28266781087120535
0.27780455385956326
0.27319019759989527
0.268804783036495
0.26463050354080947
0.26065141992768065
0.2568532217311609
0.2532230257967833
0.24974920504947729
0.24642124177973504
0.2432296009247957
0.24016561978205003
0.237221411357616
0.23438977915533327
0.23166414171312946
0.2290384655879428
0.22650720578292344
0.224065252833107
0.2217078859306329
0.2194307315763045
0.2172297273045375
0.21510109006247136
0.21304128883652665
0.2110470211142909
0.2091151927588314
0.20724290086559263
0.20542741916890406
0.20366618556802923
0.20195679135781558
0.20029697177743425
0.19868459752809564
0.19711766695566862
0.19559429864789313
0.19411272425467185
0.19267128139803638
0.19126840659419292
0.18990262816248926
0.18857255914172993
0.18727689027035013
0.18601438311289356
0.18478386343118391
0.18358421490427795
0.1824143732974028
0.1812733211678307
0.18016008317666185
0.17907372205193753
0.1780133352221758
0.17697805211217252
0.1759670320668043
0.17497946284512325
0.17401455960767964
0.1730715643056152
0.1721497453712346
0.17124839760653268
0.17036684216825226
0.1695044265554084
0.16866052451715818
0.16783453581424737
0.16702588578491287
0.1662340246855807
0.1654584267969689
0.16469858930666326
0.16395403099919825
0.16322429080358208
0.16250892626602823
0.16180751203123778
0.16111963842741317
0.1604449102564992
0.15978294588925968
0.1591333767509979
0.15849584725473334
0.1578700151922108
0.15725555252903214
0.1566521464725248
0.15605950059788676
0.15547733574294026
0.1549053903320109
0.15434341978332342
0.15379119470780592
0.15324849772855614
0.1527151189360947
0.1521908502274799
0.15167547902584516
0.15116878209965598
0.1506705203519465
0.1501804354883532
0.14969824937287676
0.14922366663732156
0.14875638074565523
0.14829608327299923
0.14784247570251505
0.14739528264187704
0.14695426507917722
0.14651923218389773
0.14609005023456653
0.14566664751413508
0.14524901442304997
0.14483719856283703
0.1444312950725579
0.14403143298949936
0.14363775879613305
0.14325041856700943
0.1428695402227157
0.14249521733539672
0.14212749573210964
0.14176636384247132
0.14141174737639475
0.1410635085378497
0.1407214496195022
0.140385320510971
0.14005482941080172
0.13972965586999156
0.139409465214746
0.1390939233922484
0.1387827113442058
0.13847553812465216
0.13817215212555217
0.13787234994092115
0.13757598257373183
0.13728295885842753
0.13699324612647026
0.13670686827642228
0.1364239015193446
0.1361444681527387
0.13586872877144915
0.13559687335301226
0.13532911166031647
0.13506566338928377
0.13480674845728294
0.1345525777829049
0.13430334485324347
0.1340592183146198
0.13382033576044833
0.13358679882878166
0.13335866966474447
0.13313596875187414
0.13291867407286118
0.13270672152501514
0.1325000064887495
0.1322983864273862
0.13210168438218733
0.1319096932164505
0.1317221804558503
0.13153889356850568
0.1313595655275477
0.13118392050192257
0.13101167952841702
0.13084256602976801
0.13067631106019653
0.13051265818044017
0.13035136788853777
0.13019222155918997
0.13003502487258314
0.12987961074251642
0.12972584178322963
0.12957361238467427
0.12942285049789554
0.12927351926682534
0.12912561868068215
0.12897918745896872
0.12883430539953156
0.12869109634267473
0.12854973146030346
0.12841043084165432
0.12827345520940758
0.12813905862055303
0.1280073024527737
0.1278773959554148
0.1277454641905128
0.1275972863567845
0.12738612783865275
0.12715964960133608
1.0002987300183739
0.9916523857556768
0.9729369086521
0.9463139458000466
0.9147243542176197
0.8807980697293978
0.8464972777168543
0.8131158047543782
0.7814088658780949
0.751745947583967
0.7242436261757814
0.6988660446054005
0.6754943848938936
0.6539715680674452
0.6341291331682062
0.6158022258266688
0.5988371282291465
0.5830943690287633
0.5684493666921508
0.5547917976015391
0.542024381641826
0.5300614689941263
0.51882762862495
0.5082563344797589
0.49828878808633975
0.48887288622746733
0.4799623275494531
0.4715158454637944
0.46349655249051047
0.45587138119897413
0.44861060786164936
0.441687446318947
0.435077701053528
0.4287594699001401
0.42271288816643604
0.41691990718226624
0.4113641013958751
0.40603049913744094
0.4009054330575024
0.3959764070245613
0.39123197694754946
0.3866616435594725
0.3822557556722384
0.37800542279733557
0.3739024363153748
0.3699391985804821
0.3661086594822329
0.36240426006269905
0.3588198828049213
0.355349808192495
0.3519886771037336
0.3487314585525513
0.3455734222325016
0.34251011527541664
0.33953734260755986
0.33665115027420156
0.3338478111124358
0.3311238121854148
0.3284758434452426
0.3259007871616352
0.3233957077370105
0.3209578416215449
0.31858458713671384
0.3162734941073573
0.3140222532869372
0.31182868563459853
0.3096907315614569
0.30760644030513484
0.305573959615889
0.3035915259451875
0.3016574553189506
0.2997701350546673
0.29792801644766304
0.29612960851038844
0.29437347280254333
0.29265821934249303
0.29098250354511107
0.28934502409077545
0.2877445215969236
0.2861797779388792
0.28464961605141004
0.2831529000367767
0.2816885354088506
0.2802554693155498
0.27885269060199586
0.2774792296025937
0.27613415758031007
0.27481658576419205
0.273525663970278
0.2722605788252964
0.2710205516458271
0.26980483605769645
0.26861271547056864
0.2674435005496395
0.2662965268480436
0.26517115277689984
0.26406675808983776
0.2629827430391802
0.26191852831510065
0.2608735558016569
0.2598472900737071
0.2588392204213552
0.2578488630375388
0.25687576286308045
0.25591949448301043
0.2549796614429884
0.25405589343575297
0.2531478410125201
0.2522551678001151
0.2513775406219787
0.25051461837499867
0.24966604092813005
0.24883141959840852
0.24801033084918483
0.24720231469334972
0.24640687886030305
0.2456235091358564
0.2448516854895086
0.24409090277718884
0.24334069407739956
0.2426006542035582
0.24187046072334026
0.24114988994794234
0.2404388258183526
0.23973726034915843
0.23904528519123808
0.23836307482090832
0.23769086273277226
0.237028912702991
0.23637748762776822
0.23573681859596135
0.23510707673117073
0.23448834997677476
0.23388062645931884
0.23328378542499867
0.2326975960752466
0.23212172399708964
0.23155574434406903
0.23099916050892821
0.23045142675731664
0.22991197316367848
0.2293802311944069
0.22885565839858218
0.22833776086757743
0.22782611238417544
0.2273203694732147
0.22682028186575212
0.22632569817808348
0.225836566870745
0.22535293277996318
0.22487492969815698
0.2244027696176834
0.2239367293427531
0.22347713522065155
0.22302434674934757
0.22257873978990353
0.22214069005517115
0.2217105574675276
0.22128867188416718
0.22087532058502646
0.22047073781167353
0.2200750965408303
0.21968850257849432
0.2193109909738684
0.21894252467919262
0.21858299532320924
0.21823222592174554
0.21788997531672374
0.21755594411211404
0.21722978185945674
0.2169110952347599
0.21659945694199573
0.21629441507655786
0.21599550268611867
0.21570224727759782
0.21541418003814206
0.21513084456518883
0.2148518049349816
0.21457665297867184
0.2143050146783651
0.214036555640269
0.21377098564698768
0.21350806233494285
0.2132475940855269
0.21298944226027158
0.21273352295182962
0.2124798084646236
0.21222832878024359
0.2119791732928312
0.21173249307026157
0.21148850363444796
0.21124748712149383
0.21100978853327926
0.21077578586630194
0.21054576099810127
0.21031940270912503
0.21009392963849538
0.2098568296487644
0.20955744855255604
0.2092371215898915
1.0001668604079559
0.9995007838333774
0.9964736489567059
0.9903519827795332
0.9810072955626727
0.9687303159084659
0.9540356074807795
0.937514533650581
0.9197416797905249
0.9012241041534628
0.8823803614712246
0.8635381317703708
0.8449421317516261
0.8267666493510994
0.8091291806344975
0.7921032097799154
0.775729221981718
0.7600236842071214
0.7449860841448058
0.7306042827243897
0.7168584864008303
0.7037241348154079
0.6911739609996237
0.6791794344602868
0.6677117522557895
0.6567425040080839
0.6462441049215997
0.6361900658646642
0.626555150494592
0.6173154551749861
0.6084484368825537
0.5999329066018124
0.5917490002013808
0.5838781348231543
0.5763029560893873
0.5690072795248698
0.5619760283992747
0.5551951693970185
0.548651647075316
0.5423333178622484
0.5362288842541392
0.5303278298571349
0.5246203559429101
0.5190973202124142
0.5137501784579535
0.508570929770553
0.5035520658599376
0.4986865249418671
0.4939676505005258
0.48938915506337743
0.48494508895125815
0.4806298137969949
0.47643798046822283
0.47236451089765413
0.46840458322691036
0.46455361960983277
0.4608072759981513
0.4571614332476943
0.45361218893464994
0.45015584935196945
0.44678892125799985
0.44350810306613164
0.4403102752877349
0.4371924901617501
0.43415196051588845
0.43118604800118215
0.4282922509186369
0.4254681919101962
0.4227116058151645
0.42002032799856887
0.417392283440772
0.4148254768406745
0.41231798393279717
0.40986794415600736
0.407473554743032
0.40513306622988515
0.4028447793176607
0.4006070429599218
0.3984182535002723
0.396276854648473
0.3941813380608179
0.39213024428204457
0.3901221638114054
0.3881557380733809
0.3862296601017566
0.38434267478234224
0.38249357854208565
0.3806812184184429
0.3789044904906273
0.3771623377020029
0.3754537471494763
0.3737777469607586
0.3721334029232417
0.3705198150678305
0.36893611444499086
0.36738146035404445
0.3658550382934002
0.364356058879131
0.36288375792068506
0.36143739773606315
0.36001626962977873
0.3586196972502969
0.35724704030815574
0.35589769790562586
0.3545711105522705
0.3532667598739361
0.3519841651173097
0.35072287584177275
0.3494824606761575
0.3482624926603273
0.34706253240613755
0.34588211097982713
0.344720714893242
0.34357777576950377
0.3424526670340788
0.3413447093521769
0.34025318554032735
0.33917736444860613
0.33811653201937514
0.33707002658127844
0.33603727462279837
0.3350178229475652
0.3340113633094232
0.333017746339412
0.33203698270872267
0.33106923086028933
0.33011477209482704
0.32917397512438495
0.32824725324858867
0.3273350179581976
0.3264376329816045
0.3255553725773976
0.3246883873051369
0.3238366796758241
0.32300009110783956
0.32217830060728275
0.32137083465321303
0.3205770869746594
0.3197963463069424
0.3190278298323172
0.31827071984250394
0.31752420118776925
0.3167874972658401
0.31605990261441863
0.3153408105621264
0.31462973482533585
0.31392632437883533
0.31323037134936565
0.3125418120617452
0.31186072169281814
0.3111873032496875
0.3105218717814016
0.30986483485772526
0.3092166704086924
0.30857790302096333
0.3079490797401341
0.30733074634153723
0.3067234249150597
0.3061275934712293
0.3055436681250185
0.30497198825865296
0.3044128049130375
0.3038662725164373
0.3033324439347821
0.30281126872443315
0.30230259438702706
0.3018061703658857
0.30132165448100645
0.30084862147036007
0.30038657328488033
0.2999349507699812
0.2994931463567245
0.2990605173819009
0.2986363996605225
0.2982201209487788
0.2978110139618521
0.2974084286492046
0.2970117434784547
0.2966203755349873
0.2962337893046917
0.2958515040685593
0.29547309989761134
0.29509822229286475
0.29472658556666453
0.29435797510826595
0.29399224871759994
0.2936293372265524
0.2932692446550658
0.29291204816826233
0.2925578980845271
0.292207018076614
0.2918597051564277
0.2915163271933313
0.2911773081746237
0.2908430659481162
0.29051375730834905
0.2901882210507267
0.28985871622986276
0.2894774377657943
0.2890632862131243
1.0000261286291428
1.0000797437527396
0.9998013724614506
0.9988081788179944
0.9967749403281487
0.9934878336169811
0.9888518305484029
0.9828742210887595
0.9756388992959197
0.9672799996181761
0.9579590735487811
0.9478473157337872
0.9371128869577553
0.9259126808769963
0.9143876257387686
0.9026606011911653
0.8908361600670003
0.8790014013706615
0.8672275011645925
0.8555715508576015
0.8440784687865723
0.8327828398350189
0.8217106019030039
0.8108805419416074
0.8003055925608574
0.7899939371127653
0.7799499403013898
0.7701749252129817
0.7606678182519685
0.7514256822393786
0.7424441557179858
0.7337178139507314
0.7252404645926053
0.7170053886720739
0.7090055356228635
0.7012336794298673
0.6936825417272624
0.6863448867489463
0.6792135922919028
0.6722817003671536
0.6655424508667278
0.6589893012898949
0.6526159353424887
0.6464162630200061
0.6403844145695219
0.6345147304780696
0.6288017493563134
0.6232401952852392
0.6178249658729348
0.6125511219338329
0.6074138793725605
0.602408603545688
0.5975308060968384
0.5927761440241217
0.5881404205550073
0.5836195872779616
0.5792097469113189
0.5749071560753115
0.570708227469992
0.566609530942183
0.5626077930368881
0.5586998947622477
0.5548828674419735
0.5511538866738457
0.5475102645467097
0.5439494403837515
0.5404689703705916
0.5370665164881849
0.5337398352009141
0.5304867663500902
0.5273052226740536
0.5241931803224416
0.5211486706595203
0.5181697735653235
0.5152546123498477
0.5124013503008659
0.5096081887962686
0.5068733668325112
0.5041951617553173
0.5015718909298471
0.49900191405692673
0.4964836358302024
0.49401550863544835
0.4915960350156654
0.4892237696617623
0.48689732073557046
0.4846153503863322
0.4823765743806479
0.4801797608264484
0.4780237280318462
0.4759073415985493
0.473829510906677
0.4717891852033492
0.4697853495606556
0.4678170210171743
0.4658832452562327
0.46398309419421085
0.4621156648388717
0.46028007971393964
0.4584754890149092
0.45670107445135194
0.45495605444494036
0.4532396900115396
0.45155129030646834
0.44989021652412853
0.4482558827005919
0.4466477520524428
0.4450653278555118
0.443508138536485
0.4419757175689751
0.4404675798156255
0.4389831969652838
0.43752197547618554
0.43608324076052507
0.43466623109667135
0.4332701038890243
0.4318939554817689
0.4305368539517089
0.42919788242104817
0.42787618874499184
0.4265710362227674
0.4252818494630441
0.42400824980375734
0.4227500757115722
0.4215073852175576
0.42028043944383536
0.4190696683578779
0.4178756217792653
0.41669891012901944
0.41554014030381176
0.4143998523178742
0.4132784620141993
0.41217621430442325
0.41109315020065035
0.41002908951901895
0.40898362972591307
0.40795616010174474
0.40694588931783626
0.40595188372328456
0.4049731131463689
0.4040085008211711
0.4030569741215051
0.40211751307175114
0.4011891940506038
0.4002712266510499
0.3993629822550938
0.39846401348010285
0.39757406421945946
0.39669307050695485
0.3958211528635944
0.3949586011261108
0.39410585300394263
0.39326346776692317
0.3924320965353726
0.39161245063736816
0.3908052694269412
0.3900112888347202
0.3892312117617594
0.388465681239911
0.3877152570790417
0.3869803965131873
0.38626143915469
0.38555859637742784
0.3848719450857823
0.38420142569090077
0.38354684401222294
0.38290787674815835
0.3822840801097859
0.381674901178444
0.38107969152513277
0.3804977226121636
0.3799282024842657
0.3793702932493897
0.3788231288525821
0.37828583266345345
0.3777575344314202
0.3772373862131097
0.3767245769405061
0.37621834537224513
0.375717991249039
0.37522288455277497
0.37473247284349537
0.3742462867165391
0.37376394348191344
0.37328514921844613
0.37280969939422914
0.3723374782713461
0.3718684573191791
0.371402692856087
0.3709403230799531
0.370481564617057
0.37002670828076745
0.36957611353088066
0.3691301964448804
0.3686894025617516
0.3682540944278823
0.36782417574948845
0.36739672617117125
0.36693250347228246
0.3664141970140449
1.0000067120885452
1.0000680362327923
1.0001291286866842
1.0000925847445086
0.9998303891620844
0.9992098042481473
0.9981122159456293
0.9964446912540689
0.9941448770973892
0.9911809766218592
0.9875486262000924
0.9832661719631718
0.9783694233081593
0.9729065780600413
0.9669337137359443
0.9605110247043732
0.9536998433813103
0.9465603983347949
0.9391502174880405
0.931523067300295
0.9237283186328161
0.9158106396121064