# vtk DataFile Version 3.0
jCFD simulation data
ASCII
DATASET UNSTRUCTURED_GRID
POINTS 8241 double
0.0 0.0 0.0
0.5 0.0 0.0
0.0 0.1 0.0
0.5 0.1 0.0
0.0025 0.0 0.0
0.005 0.0 0.0
0.0075 0.0 0.0
0.01 0.0 0.0
0.0125 0.0 0.0
0.015 0.0 0.0
0.0175 0.0 0.0
0.02 0.0 0.0
0.0225 0.0 0.0
0.025 0.0 0.0
0.0275 0.0 0.0
0.03 0.0 0.0
0.0325 0.0 0.0
0.035 0.0 0.0
0.0375 0.0 0.0
0.04 0.0 0.0
0.0425 0.0 0.0
0.045 0.0 0.0
0.0475 0.0 0.0
0.05 0.0 0.0
0.0525 0.0 0.0
0.055 0.0 0.0
0.0575 0.0 0.0
0.06 0.0 0.0
0.0625 0.0 0.0
0.065 0.0 0.0
0.0675 0.0 0.0
0.07 0.0 0.0
0.0725 0.0 0.0
0.075 0.0 0.0
0.0775 0.0 0.0
0.08 0.0 0.0
0.0825 0.0 0.0
0.085 0.0 0.0
0.08750000000000001 0.0 0.0
0.09 0.0 0.0
0.0925 0.0 0.0
0.095 0.0 0.0
0.0975 0.0 0.0
0.1 0.0 0.0
0.10250000000000001 0.0 0.0
0.105 0.0 0.0
0.1075 0.0 0.0
0.11 0.0 0.0
0.1125 0.0 0.0
0.115 0.0 0.0
0.11750000000000001 0.0 0.0
0.12 0.0 0.0
0.1225 0.0 0.0
0.125 0.0 0.0
0.1275 0.0 0.0
0.13 0.0 0.0
0.1325 0.0 0.0
0.135 0.0 0.0
0.1375 0.0 0.0
0.14 0.0 0.0
0.14250000000000002 0.0 0.0
0.145 0.0 0.0
0.1475 0.0 0.0
0.15 0.0 0.0
0.1525 0.0 0.0
0.155 0.0 0.0
0.1575 0.0 0.0
0.16 0.0 0.0
0.1625 0.0 0.0
0.165 0.0 0.0
0.1675 0.0 0.0
0.17 0.0 0.0
0.17250000000000001 0.0 0.0
0.17500000000000002 0.0 0.0
0.1775 0.0 0.0
0.18 0.0 0.0
0.1825 0.0 0.0
0.185 0.0 0.0
0.1875 0.0 0.0
0.19 0.0 0.0
0.1925 0.0 0.0
0.195 0.0 0.0
0.1975 0.0 0.0
0.2 0.0 0.0
0.2025 0.0 0.0
0.20500000000000002 0.0 0.0
0.20750000000000002 0.0 0.0
0.21 0.0 0.0
0.2125 0.0 0.0
0.215 0.0 0.0
0.2175 0.0 0.0
0.22 0.0 0.0
0.2225 0.0 0.0
0.225 0.0 0.0
0.2275 0.0 0.0
0.23 0.0 0.0
0.2325 0.0 0.0
0.23500000000000001 0.0 0.0
0.23750000000000002 0.0 0.0
0.24 0.0 0.0
0.2425 0.0 0.0
0.245 0.0 0.0
0.2475 0.0 0.0
0.25 0.0 0.0
0.2525 0.0 0.0
0.255 0.0 0.0
0.2575 0.0 0.0
0.26 0.0 0.0
0.2625 0.0 0.0
0.265 0.0 0.0
0.2675 0.0 0.0
0.27 0.0 0.0
0.2725 0.0 0.0
0.275 0.0 0.0
0.2775 0.0 0.0
0.28 0.0 0.0
0.28250000000000003 0.0 0.0
0.28500000000000003 0.0 0.0
0.28750000000000003 0.0 0.0
0.29 0.0 0.0
0.2925 0.0 0.0
0.295 0.0 0.0
0.2975 0.0 0.0
0.3 0.0 0.0
0.3025 0.0 0.0
0.305 0.0 0.0
0.3075 0.0 0.0
0.31 0.0 0.0
0.3125 0.0 0.0
0.315 0.0 0.0
0.3175 0.0 0.0
0.32 0.0 0.0
0.3225 0.0 0.0
0.325 0.0 0.0
0.3275 0.0 0.0
0.33 0.0 0.0
0.3325 0.0 0.0
0.335 0.0 0.0
0.3375 0.0 0.0
0.34 0.0 0.0
0.3425 0.0 0.0
0.34500000000000003 0.0 0.0
0.34750000000000003 0.0 0.0
0.35000000000000003 0.0 0.0
0.3525 0.0 0.0
0.355 0.0 0.0
0.3575 0.0 0.0
0.36 0.0 0.0
0.3625 0.0 0.0
0.365 0.0 0.0
0.3675 0.0 0.0
0.37 0.0 0.0
0.3725 0.0 0.0
0.375 0.0 0.0
0.3775 0.0 0.0
0.38 0.0 0.0
0.3825 0.0 0.0
0.385 0.0 0.0
0.3875 0.0 0.0
0.39 0.0 0.0
0.3925 0.0 0.0
0.395 0.0 0.0
0.3975 0.0 0.0
0.4 0.0 0.0
0.4025 0.0 0.0
0.405 0.0 0.0
0.40750000000000003 0.0 0.0
0.41000000000000003 0.0 0.0
0.41250000000000003 0.0 0.0
0.41500000000000004 0.0 0.0
0.4175 0.0 0.0
0.42 0.0 0.0
0.4225 0.0 0.0
0.425 0.0 0.0
0.4275 0.0 0.0
0.43 0.0 0.0
0.4325 0.0 0.0
0.435 0.0 0.0
0.4375 0.0 0.0
0.44 0.0 0.0
0.4425 0.0 0.0
0.445 0.0 0.0
0.4475 0.0 0.0
0.45 0.0 0.0
0.4525 0.0 0.0
0.455 0.0 0.0
0.4575 0.0 0.0
0.46 0.0 0.0
0.4625 0.0 0.0
0.465 0.0 0.0
0.4675 0.0 0.0
0.47000000000000003 0.0 0.0
0.47250000000000003 0.0 0.0
0.47500000000000003 0.0 0.0
0.47750000000000004 0.0 0.0
0.48 0.0 0.0
0.4825 0.0 0.0
0.485 0.0 0.0
0.4875 0.0 0.0
0.49 0.0 0.0
0.4925 0.0 0.0
0.495 0.0 0.0
0.4975 0.0 0.0
0.0025 0.1 0.0
0.005 0.1 0.0
0.0075 0.1 0.0
0.01 0.1 0.0
0.0125 0.1 0.0
0.015 0.1 0.0
0.0175 0.1 0.0
0.02 0.1 0.0
0.0225 0.1 0.0
0.025 0.1 0.0
0.0275 0.1 0.0
0.03 0.1 0.0
0.0325 0.1 0.0
0.035 0.1 0.0
0.0375 0.1 0.0
0.04 0.1 0.0
0.0425 0.1 0.0
0.045 0.1 0.0
0.0475 0.1 0.0
0.05 0.1 0.0
0.0525 0.1 0.0
0.055 0.1 0.0
0.0575 0.1 0.0
0.06 0.1 0.0
0.0625 0.1 0.0
0.065 0.1 0.0
0.0675 0.1 0.0
0.07 0.1 0.0
0.0725 0.1 0.0
0.075 0.1 0.0
0.0775 0.1 0.0
0.08 0.1 0.0
0.0825 0.1 0.0
0.085 0.1 0.0
0.08750000000000001 0.1 0.0
0.09 0.1 0.0
0.0925 0.1 0.0
0.095 0.1 0.0
0.0975 0.1 0.0
0.1 0.1 0.0
0.10250000000000001 0.1 0.0
0.105 0.1 0.0
0.1075 0.1 0.0
0.11 0.1 0.0
0.1125 0.1 0.0
0.115 0.1 0.0
0.11750000000000001 0.1 0.0
0.12 0.1 0.0
0.1225 0.1 0.0
0.125 0.1 0.0
0.1275 0.1 0.0
0.13 0.1 0.0
0.1325 0.1 0.0
0.135 0.1 0.0
0.1375 0.1 0.0
0.14 0.1 0.0
0.14250000000000002 0.1 0.0
0.145 0.1 0.0
0.1475 0.1 0.0
0.15 0.1 0.0
0.1525 0.1 0.0
0.155 0.1 0.0
0.1575 0.1 0.0
0.16 0.1 0.0
0.1625 0.1 0.0
0.165 0.1 0.0
0.1675 0.1 0.0
0.17 0.1 0.0
0.17250000000000001 0.1 0.0
0.17500000000000002 0.1 0.0
0.1775 0.1 0.0
0.18 0.1 0.0
0.1825 0.1 0.0
0.185 0.1 0.0
0.1875 0.1 0.0
0.19 0.1 0.0
0.1925 0.1 0.0
0.195 0.1 0.0
0.1975 0.1 0.0
0.2 0.1 0.0
0.2025 0.1 0.0
0.20500000000000002 0.1 0.0
0.20750000000000002 0.1 0.0
0.21 0.1 0.0
0.2125 0.1 0.0
0.215 0.1 0.0
0.2175 0.1 0.0
0.22 0.1 0.0
0.2225 0.1 0.0
0.225 0.1 0.0
0.2275 0.1 0.0
0.23 0.1 0.0
0.2325 0.1 0.0
0.23500000000000001 0.1 0.0
0.23750000000000002 0.1 0.0
0.24 0.1 0.0
0.2425 0.1 0.0
0.245 0.1 0.0
0.2475 0.1 0.0
0.25 0.1 0.0
0.2525 0.1 0.0
0.255 0.1 0.0
0.2575 0.1 0.0
0.26 0.1 0.0
0.2625 0.1 0.0
0.265 0.1 0.0
0.2675 0.1 0.0
0.27 0.1 0.0
0.2725 0.1 0.0
0.275 0.1 0.0
0.2775 0.1 0.0
0.28 0.1 0.0
0.28250000000000003 0.1 0.0
0.28500000000000003 0.1 0.0
0.28750000000000003 0.1 0.0
0.29 0.1 0.0
0.2925 0.1 0.0
0.295 0.1 0.0
0.2975 0.1 0.0
0.3 0.1 0.0
0.3025 0.1 0.0
0.305 0.1 0.0
0.3075 0.1 0.0
0.31 0.1 0.0
0.3125 0.1 0.0
0.315 0.1 0.0
0.3175 0.1 0.0
0.32 0.1 0.0
0.3225 0.1 0.0
0.325 0.1 0.0
0.3275 0.1 0.0
0.33 0.1 0.0
0.3325 0.1 0.0
0.335 0.1 0.0
0.3375 0.1 0.0
0.34 0.1 0.0
0.3425 0.1 0.0
0.34500000000000003 0.1 0.0
0.34750000000000003 0.1 0.0
0.35000000000000003 0.1 0.0
0.3525 0.1 0.0
0.355 0.1 0.0
0.3575 0.1 0.0
0.36 0.1 0.0
0.3625 0.1 0.0
0.365 0.1 0.0
0.3675 0.1 0.0
0.37 0.1 0.0
0.3725 0.1 0.0
0.375 0.1 0.0
0.3775 0.1 0.0
0.38 0.1 0.0
0.3825 0.1 0.0
0.385 0.1 0.0
0.3875 0.1 0.0
0.39 0.1 0.0
0.3925 0.1 0.0
0.395 0.1 0.0
0.3975 0.1 0.0
0.4 0.1 0.0
0.4025 0.1 0.0
0.405 0.1 0.0
0.40750000000000003 0.1 0.0
0.41000000000000003 0.1 0.0
0.41250000000000003 0.1 0.0
0.41500000000000004 0.1 0.0
0.4175 0.1 0.0
0.42 0.1 0.0
0.4225 0.1 0.0
0.425 0.1 0.0
0.4275 0.1 0.0
0.43 0.1 0.0
0.4325 0.1 0.0
0.435 0.1 0.0
0.4375 0.1 0.0
0.44 0.1 0.0
0.4425 0.1 0.0
0.445 0.1 0.0
0.4475 0.1 0.0
0.45 0.1 0.0
0.4525 0.1 0.0
0.455 0.1 0.0
0.4575 0.1 0.0
0.46 0.1 0.0
0.4625 0.1 0.0
0.465 0.1 0.0
0.4675 0.1 0.0
0.47000000000000003 0.1 0.0
0.47250000000000003 0.1 0.0
0.47500000000000003 0.1 0.0
0.47750000000000004 0.1 0.0
0.48 0.1 0.0
0.4825 0.1 0.0
0.485 0.1 0.0
0.4875 0.1 0.0
0.49 0.1 0.0
0.4925 0.1 0.0
0.495 0.1 0.0
0.4975 0.1 0.0
0.0 0.0025 0.0
0.0 0.005 0.0
0.0 0.0075 0.0
0.0 0.01 0.0
0.0 0.0125 0.0
0.0 0.015 0.0
0.0 0.0175 0.0
0.0 0.02 0.0
0.0 0.0225 0.0
0.0 0.025 0.0
0.0 0.0275 0.0
0.0 0.03 0.0
0.0 0.0325 0.0
0.0 0.035 0.0
0.0 0.0375 0.0
0.0 0.04 0.0
0.0 0.0425 0.0
0.0 0.045 0.0
0.0 0.0475 0.0
0.0 0.05 0.0
0.0 0.0525 0.0
0.0 0.055 0.0
0.0 0.0575 0.0
0.0 0.06 0.0
0.0 0.0625 0.0
0.0 0.065 0.0
0.0 0.0675 0.0
0.0 0.07 0.0
0.0 0.0725 0.0
0.0 0.075 0.0
0.0 0.0775 0.0
0.0 0.08 0.0
0.0 0.0825 0.0
0.0 0.085 0.0
0.0 0.08750000000000001 0.0
0.0 0.09 0.0
0.0 0.0925 0.0
0.0 0.095 0.0
0.0 0.0975 0.0
0.5 0.0025 0.0
0.5 0.005 0.0
0.5 0.0075 0.0
0.5 0.01 0.0
0.5 0.0125 0.0
0.5 0.015 0.0
0.5 0.0175 0.0
0.5 0.02 0.0
0.5 0.0225 0.0
0.5 0.025 0.0
0.5 0.0275 0.0
0.5 0.03 0.0
0.5 0.0325 0.0
0.5 0.035 0.0
0.5 0.0375 0.0
0.5 0.04 0.0
0.5 0.0425 0.0
0.5 0.045 0.0
0.5 0.0475 0.0
0.5 0.05 0.0
0.5 0.0525 0.0
0.5 0.055 0.0
0.5 0.0575 0.0
0.5 0.06 0.0
0.5 0.0625 0.0
0.5 0.065 0.0
0.5 0.0675 0.0
0.5 0.07 0.0
0.5 0.0725 0.0
0.5 0.075 0.0
0.5 0.0775 0.0
0.5 0.08 0.0
0.5 0.0825 0.0
0.5 0.085 0.0
0.5 0.08750000000000001 0.0
0.5 0.09 0.0
0.5 0.0925 0.0
0.5 0.095 0.0
0.5 0.0975 0.0
0.0025 0.0025 0.0
0.005 0.0025 0.0
0.0075 0.0025 0.0
0.01 0.0025 0.0
0.0125 0.0025 0.0
0.015 0.0025 0.0
0.0175 0.0025 0.0
0.02 0.0025 0.0
0.0225 0.0025 0.0
0.025 0.0025 0.0
0.0275 0.0025 0.0
0.03 0.0025 0.0
0.0325 0.0025 0.0
0.035 0.0025 0.0
0.0375 0.0025 0.0
0.04 0.0025 0.0
0.0425 0.0025 0.0
0.045 0.0025 0.0
0.0475 0.0025 0.0
0.05 0.0025 0.0
0.0525 0.0025 0.0
0.055 0.0025 0.0
0.0575 0.0025 0.0
0.06 0.0025 0.0
0.0625 0.0025 0.0
0.065 0.0025 0.0
0.0675 0.0025 0.0
0.07 0.0025 0.0
0.0725 0.0025 0.0
0.075 0.0025 0.0
0.0775 0.0025 0.0
0.08 0.0025 0.0
0.0825 0.0025 0.0
0.085 0.0025 0.0
0.08750000000000001 0.0025 0.0
0.09 0.0025 0.0
0.0925 0.0025 0.0
0.095 0.0025 0.0
0.0975 0.0025 0.0
0.1 0.0025 0.0
0.10250000000000001 0.0025 0.0
0.105 0.0025 0.0
0.1075 0.0025 0.0
0.11 0.0025 0.0
0.1125 0.0025 0.0
0.115 0.0025 0.0
0.11750000000000001 0.0025 0.0
0.12 0.0025 0.0
0.1225 0.0025 0.0
0.125 0.0025 0.0
0.1275 0.0025 0.0
0.13 0.0025 0.0
0.1325 0.0025 0.0
0.135 0.0025 0.0
0.1375 0.0025 0.0
0.14 0.0025 0.0
0.14250000000000002 0.0025 0.0
0.145 0.0025 0.0
0.1475 0.0025 0.0
0.15 0.0025 0.0
0.1525 0.0025 0.0
0.155 0.0025 0.0
0.1575 0.0025 0.0
0.16 0.0025 0.0
0.1625 0.0025 0.0
0.165 0.0025 0.0
0.1675 0.0025 0.0
0.17 0.0025 0.0
0.17250000000000001 0.0025 0.0
0.17500000000000002 0.0025 0.0
0.1775 0.0025 0.0
0.18 0.0025 0.0
0.1825 0.0025 0.0
0.185 0.0025 0.0
0.1875 0.0025 0.0
0.19 0.0025 0.0
0.1925 0.0025 0.0
0.195 0.0025 0.0
0.1975 0.0025 0.0
0.2 0.0025 0.0
0.2025 0.0025 0.0
0.20500000000000002 0.0025 0.0
0.20750000000000002 0.0025 0.0
0.21 0.0025 0.0
0.2125 0.0025 0.0
0.215 0.0025 0.0
0.2175 0.0025 0.0
0.22 0.0025 0.0
0.2225 0.0025 0.0
0.225 0.0025 0.0
0.2275 0.0025 0.0
0.23 0.0025 0.0
0.2325 0.0025 0.0
0.23500000000000001 0.0025 0.0
0.23750000000000002 0.0025 0.0
0.24 0.0025 0.0
0.2425 0.0025 0.0
0.245 0.0025 0.0
0.2475 0.0025 0.0
0.25 0.0025 0.0
0.2525 0.0025 0.0
0.255 0.0025 0.0
0.2575 0.0025 0.0
0.26 0.0025 0.0
0.2625 0.0025 0.0
0.265 0.0025 0.0
0.2675 0.0025 0.0
0.27 0.0025 0.0
0.2725 0.0025 0.0
0.275 0.0025 0.0
0.2775 0.0025 0.0
0.28 0.0025 0.0
0.28250000000000003 0.0025 0.0
0.28500000000000003 0.0025 0.0
0.28750000000000003 0.0025 0.0
0.29 0.0025 0.0
0.2925 0.0025 0.0
0.295 0.0025 0.0
0.2975 0.0025 0.0
0.3 0.0025 0.0
0.3025 0.0025 0.0
0.305 0.0025 0.0
0.3075 0.0025 0.0
0.31 0.0025 0.0
0.3125 0.0025 0.0
0.315 0.0025 0.0
0.3175 0.0025 0.0
0.32 0.0025 0.0
0.3225 0.0025 0.0
[...]
CELL_DATA 8000
SCALARS phi float 1
LOOKUP_TABLE CellColors
1.4773616085626124
1.1723316698452104
0.9897711059992148
0.8708515162427504
0.7939875312608786
0.7444519444262644
0.7114394717171492
0.6881912821422798
0.6707707607695097
0.6569463786153362
0.6454502926871158
0.6355418361160868
0.6267680426674633
0.6188367264757287
0.6115495387120234
0.604765928526137
0.5983829319730329
0.5923232157027929
0.5865275961280942
0.5809501166614319
0.5755546731844916
0.5703126271658323
0.5652010764834298
0.5602015788503698
0.5552991945110345
0.5504817585526948
0.5457393210281228
0.5410637114697113
0.536448196816099
0.5318872103446344
0.5273761351955427
0.5229111303156367
0.518488989687734
0.5141070279133069
0.5097629868290144
0.5054549590331991
0.5011813250940695
0.4969407018895633
0.49273190004783984
0.4885538888583727
0.4844057673364254
0.48028674036989283
0.47619609907288524
0.47213320462673547
0.46809747501505133
0.4640883741615887
0.46010540306309283
0.45614809257766753
0.45221599758564096
0.44830869228662484
0.44442576643529036
0.4405668223507763
0.4367314725617243
0.432919337971621
0.4291300464481803
0.42536323175649676
0.42161853276916583
0.41789559289789163
0.4141940597006307
0.4105135846263363
0.4068538228661001
0.4032144332851445
0.39959507841485675
0.39599542448802083
0.39241514150371376
0.3888539033110874
0.38531138770354384
0.38178727651670397
0.378281255725124
0.37479301553399264
0.3713222504630767
0.3678686594210286
0.3644319457688374
0.3610118173717499
0.35760798663939897
0.35422017055421257
0.35084809068841777
0.3474914732101407
0.3441500488792325
0.34082355303354284
0.3375117255664125
0.33421431089618897
0.3309310579285715
0.32766172001258365
0.32440605489094637
0.3211638246455953
0.3179347956390432
0.31471873845224707
0.3115154278195918
0.3083246425615532
0.3051461655155548
0.3019797834654856
0.2988252870702935
0.2956824707920299
0.29255113282367057
0.2894310750169995
0.2863221028108023
0.28322402515957784
0.280136654462945
0.2770598064958885
0.27399330033996133
0.2709369583155346
0.2678906059151677
0.2648540717381467
0.26182718742622946
0.2588097876006171
0.25580170980016764
0.2528027944208505
0.2498128846564474
0.24683182644048812
0.24385946838942246
0.24089566174701524
0.23794026032996712
0.23499312047475446
0.2320541009856943
0.2291230630842363
0.2261998703594951
0.22328438872003412
0.22037648634691837
0.2174760336480576
0.21458290321385767
0.21169696977420804
0.20881811015682167
0.20594620324695356
0.20308112994851035
0.20022277314656883
0.19737101767130774
0.19452575026335636
0.1916868595405503
0.18885423596608142
0.18602777181801367
0.1832073611601309
0.18039289981406798
0.1775842853326701
0.17478141697450947
0.17198419567948361
0.16919252404540397
0.16640630630548034
0.16362544830659312
0.16084985748824365
0.15807944286206294
0.1553141149917584
0.15255378597337393
0.14979836941573835
0.1470477804209781
0.1443019355649706
0.14156075287762274
0.13882415182285765
0.13609205327820584
0.13336437951389915
0.13064105417137767
0.12792200224112574
0.12520715003976585
0.12249642518634384
0.11978975657775369
0.11708707436325158
0.11438830991802297
0.11169339581576702
0.10900226580027055
0.10631485475594214
0.10363109867728099
0.10095093463724444
0.0982743007544787
0.09560113615935659
0.09293138095875761
0.09026497619949661
0.08760186383028344
0.08494198666205634
0.08228528832649046
0.07963171323242764
0.07698120651990692
0.07433371401140079
0.07168918215976877
0.06904755799231671
0.0664087890502609
0.06377282332262824
0.06113960917368843
0.05850909526223669
0.055881230451941016
0.05325596370920754
0.05063324398961617
0.04801302010329059
0.045395240569628716
0.04277985342938388
0.04016680606503016
0.037556044911318746
0.034947515272395126
0.0323411607958436
0.029736923462092182
0.02713474244278674
0.024534554818483174
0.02193629349131664
0.019339886814524015
0.016745270695762524
0.01415230460170873
0.011561179766522649
0.008970236980207071
0.006386927857841287
0.003759300567289579
0.0012092637934773098
1.1989539347655127
1.06966911486778
0.960440938629271
0.873731325447306
0.8091584216840279
0.7623309739717238
0.7281193854936909
0.7024896388336076
0.6826502093880757
0.6667524152614928
0.6535880403732808
0.642364569149457
0.6325543820762383
0.6237985206294252
0.6158466650049694
0.6085198722512855
0.6016872457399145
0.5952510648952614
0.5891370839583284
0.583288040465349
0.5776592019603203
0.5722152397822802
0.5669279886244301
0.5617748111273732
0.5567373844354038
0.5518007865634029
0.5469527993792546
0.54218337049683
0.537484193393531
0.5328483766325636
0.5282701810554746
0.523744809403385
0.5192682367953567
0.5148370733462954
0.5104484522834215
0.5060999384490326
0.5017894532152029
0.49751521269223814
0.4932756767635056
0.48906950697883683
0.48489553172578503
0.4807527174006193
0.4766401445394826
0.47255698805969537
0.46850250091291146
0.46447600057413935
0.4604768578898372
0.45650448788923265
0.45255834222939695
0.44863790299930906
0.4447426776534121
0.4408721948827664
0.43702600126323193
0.4332036585462871
0.4294047414800109
0.4256288360661422
0.42187553817457285
0.4181444524496234
0.41443519145337643
0.41074737500054004
0.40708062964705655
0.4034345883011801
0.3998088899312247
0.39620317934877686
0.39261710705002406
0.38905032910107595
0.38550250705584993
0.381973307897342
0.3784624039949677
0.37496947307220596
0.37149419818005375
0.36803626767284975
0.36459537518388013
0.36117121959887794
0.35776350502608983
0.3543719407620332
0.35099624125242646
0.3476361260480518
0.3442913197555304
0.3409615519831502
0.3376465572820091
0.3343460750828227
0.33105984962880425
0.32778762990505766
0.3245291695649451
0.3212842268538913
0.3180525645310824
0.31483394978949736
0.31162815417469125
0.3084349535027224
0.3052541277775844
0.30208546110847506
0.2989287416271986
0.2957837614059689
0.29265031637584527
0.28952820624600417
0.28641723442401784
0.2833172079372836
0.2802279373557211
0.27714923671582964
0.2740809234461756
0.27102281829436026
0.2679747452555027
0.26493653150225127
0.26190800731633457
0.2588890060216418
0.2558793639188246
0.25287892022139746
0.2498875169933199
0.24690499908803207
0.2439312140889259
0.24096601225122458
0.2380092464452568
0.2350607721011054
0.23212044715462413
0.22918813199481225
0.22626368941254807
0.22334698455068358
0.22043788485550642
0.21753626002958193
0.21464198198598547
0.21175492480394323
0.20887496468589273
0.2060019799159812
0.2031358508200096
0.20027645972683422
0.1974236909312259
0.1945774306581869
0.19173756702871236
0.18890399002698083
0.18607659146894304
0.18325526497227457
0.18043990592764164
0.17763041147122544
0.17482668045843294
0.17202861343871947
0.16923611263143162
0.16644908190257754
0.1636674267424158
0.16089105424375552
0.1581198730808485
0.15535379348875292
0.15259272724304546
0.14983658763975746
0.1470852894754101
0.144338749027026
0.14159688403200069
0.13885961366771618
0.13612685853079187
0.13339854061586884
0.13067458329383583
0.12795491128940992
0.12523945065799774
0.1225281287617663
0.11982087424486736
0.11711761700775988
0.11441828818058862
0.11172282009557635
0.10903114625839505
0.10634320131847844
0.1036589210382414
0.10097824226116052
0.09830110287866872
0.09562744179579571
0.09295719889547467
0.09029031500140619
0.08762673183934201
0.08496639199661069
0.08230923887965964
0.07965521666933105
0.07700427027351248
0.07435634527672348
0.07171138788609717
0.0690693448730666
0.06643016350999612
0.06379379150061383
0.061160176903346394
0.05852926804537491
0.05590101342705158
0.05327536161142922
0.050652261102369076
0.048031660195231425
0.04541350682151004
0.042797748330652634
0.040184331306000284
0.037573201198945826
0.034964302184372936
0.032357576401958216
0.029752964171573498
0.027150402074776467
0.02454982448349136
0.021951159307949938
0.01935432819435691
0.01675926262142539
0.014165784499403871
0.011574207635407455
0.008982533307737767
0.006399340047700358
0.0037766370725001077
0.0012162444153642907
1.048158436537109
0.9923172337488209
0.9264463795194094
0.8632259500164233
0.8102038399595756
0.7682453845689208
0.7355745456774417
0.7099888482025537
0.6895986253951829
0.6729696470891052
0.6590709460906684
0.647177368662675
0.6367800430256567
0.6275186308588212
0.6191341608950348
0.6114373272510658
0.6042873826332265
0.597578012400887
0.5912277545244098
0.5851733912429508
0.579365308075869
0.5737641773773863
0.5683385498105907
0.5630630790654674
0.557917195406547
0.5528841020665393
0.5479500070487598
0.543103528783051
0.5383352317317669
0.5336372602471996
0.5290030475245686
0.5244270825427125
0.5199047222134504
0.5154320390921698
0.5110056972915891
0.5066228509317234
0.5022810607209004
0.49797822521351043
0.4937125240135413
0.48948237074832024
0.4852863740670808
0.48112330525500735
0.4769920713180228
0.47289169260354097
0.468821284190196
0.4647800404145612
0.46076722201216025
0.45678214543907475
0.4528241740133016
0.44889271057494096
0.44498719141379917
0.44110708125404346
0.43725186911970715
0.43342106493334825
0.4296141967240206
0.4258308083407059
0.42207045758415285
0.41833271468418787
0.41461716106145086
0.41092338832251923
0.40725099744581983
0.40359959812283724
0.39996880822511155
0.39635825337256086
0.39276756658290146
0.38919638798550243
0.3856443645859973
0.38211115007048063
0.3785964046402075
0.3750997948694609
0.3716209935806994
0.3681596797323039
0.3647155383152338
0.36128826025572375
0.35787754232181673
0.3544830870320815
0.3511046025653009
0.3477418026702726
0.3443944065751495
0.3410621388959707
0.337744729544204
0.3344419136332616
0.3311534313840448
0.3278790280296497
0.3246184537194164
0.3213714634225377
0.318137816831463
0.3149172782653398
0.31170961657373514
0.30851460504087486
0.30533202129061837
0.3021616471923805
0.2990032687681827
0.295856676101005
0.29272166324458065
0.2895980281347576
0.28648557250253115
0.2833841017888254
0.2802934250610873
0.2772133549317349
0.2741437074784864
0.2710843021665788
0.26803496177287695
0.26499551231185287
0.2619657829634185
0.25894560600257405
0.255934816730841
0.2529332534094351
0.249940757194141
0.24695717207184342
0.2439823447986777
0.24101612483975826
0.23805836431045463
0.2351089179191822
0.23216764291168682
0.22923439901680126
0.22630904839366323
0.22339145558038578
0.22048148744417656
0.21757901313291006
0.21468390402815318
0.2117960336996564
0.20891527786131409
0.20604151432860618
0.20317462297752462
0.20031448570499139
0.19746098639076562
0.19461401086083716
0.19177344685229103
0.1889391839796272
0.18611111370250427
0.1832891292948728
0.18047312581544808
0.17766300007947036
0.17485865063168066
0.17205997772044065
0.16926688327290643
0.1664792708711662
0.16369704572923535
0.160920114670803
0.1581483861076137
0.1553817700183649
0.15262017792799903
0.14986352288726584
0.14711171945243134
0.14436468366501026
0.14162233303140473
0.13888458650233082
0.13615136445192605
0.133422588656431
0.13069818227235175
0.12797806981401175
0.12526217713041518
0.1225504313813471
0.11984276101264817
0.11713909573060531
0.11443936647540891
0.11174350539363015
0.10905144580967628
0.1063631221961818
0.10367847014329401
0.10099742632680178
0.09831992847505377
0.09564591533459275
0.09297532663441992
0.09030810304877475
0.0876441861582863
0.08498351840931413
0.08232604307124465
0.07967170419145701
0.07702044654759048
0.07437221559666754
0.07172695742053008
0.06908461866686319
0.06644514648510565
0.06380848845591676
0.06117459251367106
0.05854340685892695
0.05591487986227918
0.05328895995053969
0.050665595486412966
0.04804473460973379
0.04542632509369876
0.04281031409410148
0.04019664801930952
0.03758527204126094
0.034976130177791644
0.032369164055620826
0.029764314033976603
0.027161515469907364
0.024560703640542348
0.021961803402996007
0.019364739503595785
0.016769441412001106
0.014175729733813834
0.011583961133743957
0.008992263906423634
0.00640779311624917
0.0037997978225929705
0.0012278853856292466
0.9540733182414414
0.9291881248253164
0.8899378823939206
0.8459062681391654
0.8049010664660254
0.7696230979665492
0.7402216528960627
0.7159379308731103
0.6958081451379544
0.6789373551698554
0.6645864162455781
0.6521781057191995
0.6412734184501053
0.6315417192155293
0.6227340070387064
0.614661739624019
0.6071809726132673
0.6001807734047536
0.5935748274878061
0.5872953502226246
0.5812886425281085
0.5755118176857148
0.5699303669581873
0.5645163310633228
0.5592469133858741
0.5541034183552547
0.5490704314227337
0.544135180186346
0.5392870325524735
0.5345170994774975
0.5298179182116605
0.5251831980356364
0.5206076149069662
0.5160866446860068
0.5116164270187431
0.5071936537499022
0.502815477090362
0.49847943378653314
0.4941833823216236
0.4899254507812044
0.4857039934832168
0.4815175548384373
0.4773648391957335
0.4732446856552556
0.4691560470155298
0.46509797216742654
0.46106959136689385
0.4570701039151002
0.4530987678537289
0.4491548913481808
0.44523782548507923
0.4413469582549146
0.4374817095276176
0.4336415268596636
0.42982588199708477
0.42603426796036065
0.4222661966153075
0.4185211966493397
0.41479881188533624
0.4110985998761843
0.4074201307322108
0.4037629861414394
0.4001267585491205
0.3965110504684852
0.3929154738993166
0.38933964983484076
0.38578320784074593
0.382245785692905
0.3787270290627194
0.375226591240952
0.371744132892566
0.36827932183645207
0.36483183284507464
0.3614013474600202
0.3579875538202186
0.3545901465002629
0.35120882635679274
0.3478433003813445
0.34449328155843517
0.34115848872793786
0.3378386464510433
0.33453348487928947
0.33124273962629525
0.3279661516419466
0.3247034670888779
0.32145443722116085
0.3182188182651619
0.3149963713025684
0.3117868621556082
0.3085900612745016
0.3054057436271957
0.3022336885914298
0.2990736798491818
0.2959255052835368
0.2927889568780136
0.28966383061837325
0.286549926396923
0.2834470479193185
0.2803550026138553
0.277273601543229
0.2742026593187335
0.27114199401685757
0.26809142709823275
0.26505078332887416
0.2620198907036572
0.25899858037196233
0.25598668656542317
0.25298404652770784
0.24999050044626764
0.24700589138598444
0.24403006522465914
0.24106287059027703
0.2381041588000021
0.23515378380084911
0.23221160211199574
0.2292774727686979
0.22635125726778366
0.22343281951470167
0.22052202577211105
0.2176187446100034
0.21472284685734885
0.21183420555526886
0.2089526959117321
0.20607819525777926
0.2032105830052735
0.20034974060618163
0.1974955515133778
0.19464790114296723
0.19180667683811192
0.18897176783434308
0.18614306522632998
0.1833204619360724
0.18050385268246805
0.17769313395220562
0.17488820397191593
0.17208896268151067
0.16929531170862386
0.16650715434406835
0.16372439551820353
0.16094694177811322
0.15817470126547717
0.1554075836950208
0.1526455003334228
0.14988836397855654
0.14713608893894237
0.1443885910132869
0.14164578746999038
0.13890759702650152
0.13617393982841056
0.1334447374281702
0.13071991276334607
0.12799939013430187
0.12528309518123573
0.12257095486048707
0.11986289742004788
0.11715885237421181
0.11445875047730837
0.11176252369646873
0.10907010518337767
0.10638142924496369
0.10369643131298356
0.10101504791244695
0.09833721662882593
0.09566287607397671
0.0929919658506882
0.09032442651574887
0.08766019954139043
0.08499922727494096
0.08234145289645928
0.07968682037408978
0.07703527441678241
0.07438676042396758
0.07174122443168521
0.06909861305444939
0.0664588734223379
0.06382195311172
0.061187800069984956
0.05855636252959747
0.055927588916845974
0.05330142773851046
0.050677827474439344
0.04805673641066659
0.045438102536096585
0.04282187324175929
0.04020799533393543
0.03759641431405665
0.03498707500304678
0.032379919322722585
0.029774889537956446
0.027171920496408042
0.0245709529097157
0.021971906817370532
0.01937472504224264
0.01677931018328394
0.01418556165208246
0.011593611399346473
0.009002390942361872
0.006415594973214222
0.0038191334198829654
0.0012376828264709268
0.8932457059364712
0.8812346331547561
0.8573057639135432
0.8268796072726328
0.7958971161079242
0.7672141816039604
0.7417839982988587
0.7196751229034296
0.700579406921475
0.6840616128148411
0.6696807332968875
0.6570422647704279
0.6458143050280816
0.6357265655702622
0.6265626320903596
0.6181505549017914
0.610353989057467
0.6030646644345357
0.5961963019559363
0.5896798252822074
0.5834596401496956
0.5774907578244056
0.5717365720908852
0.5661671373211871
0.5607578294520177
0.5554882996671553
0.5503416523893327
0.545303795820667
0.5403629258315028
0.5355091134420714
0.5307339732347991
0.5260303953658796
0.5213923278578699
0.5168145988842969
0.5122927710518216
0.5078230214309443
0.5034020424204464
0.4990269595561561
0.49469526316722073
0.4904047513994218
0.486153482607322
0.48193973549670405
0.4777619756995113
0.47361882770318187
0.4695090512484053
0.4654315214642285
0.46138521213500017
0.4573691815959481
0.45338256083794093
0.4494245434708731
0.44549437725201085
0.44159135693280094
0.43771481821689223
0.4338641326548712
0.4300387033286245
0.42623796120124124
0.42246136202770795
0.4187083837379337
0.41497852421739145
0.41127129942226986
0.4075862417758457
0.40392289880109833
0.4002808319516178
0.39665961560882135
0.39305883621853577
0.3894780915442784
0.38591699001819035
0.3823751501736354
0.3788522001460724
0.3753477772309934
0.37186152748957146
0.36839310539421843
0.36494217350756536
0.36150840218948305
0.3580914693276825
0.35469106008821716
0.3513068666828505
0.3479385881508009
0.34458593015281963
0.3412486047759371
0.3379263303475188
0.3346188312575276
0.3313258377881002
0.3280470859497147
0.32478231732336765
0.32153127890829
0.31829372297482317
0.3150694069221494
0.31185809314062307
0.3086595488785011
0.30547354611289756
0.30229986142481785
0.299138275878143
0.2959885749024514
0.29285054817956985
0.2897239895337538
0.28660869682539886
0.2835044718481841
0.2804111202295509
0.27732845133441447
0.2742562781720084
0.27119441730575616
0.2681426887660659
0.26510091596593777
0.26206892561928125
0.25904654766182983
0.25603361517455214
0.2530299643094518
0.2500354342176591
0.24704986697971676
0.24407310753797135
0.24110500363098428
0.2381454057298876
0.23519416697661313
0.23225114312393555
0.22931619247727342
0.22638917583820597
0.22346995644966547
0.2205583999427768
0.2176543742853209
0.21475774973180353
0.21186839877511934
0.20898619609980057
0.20611101853684646
0.20324274502012618
0.20038125654435404
0.1975264361246259
0.1946781687575127
0.19183634138369246
0.18900084285210605
0.18617156388560738
0.18334839704807818
0.18053123671296334
0.17771997903317882
0.17491452191233098
0.17211476497718092
0.16932060955127332
0.16653195862964698
0.1637487168545277
0.16097079049190574
0.15819808740888594
0.15543051705169578
0.15266799042423532
0.14991042006704342
0.14715772003655966
0.14440980588455507
0.14166659463761325
0.13892800477653588
0.13619395621556205
0.13346437028128466
0.1307391696911623
0.12801827853152442
0.1253016222349815
0.12258912755715243
0.11988072255263761
0.11717633655016445
0.11447590012684782
0.11177934508150687
0.10908660440698903
0.1063976122614522
0.10371230393855906
0.10103061583653324
0.09835248542602441
0.09567785121672036
0.09300665272262688
0.09033883042593036
0.08767432573931354
0.08501308096659765
0.0823550392615011
0.07970014458432319
0.07704834165622665
0.07439957591081287
0.07175379344256459
0.06911094095152119
0.0664709656840094
0.06383381536749716
0.061199438141546145
0.05856778247737396
0.05593879709877099
0.0533124308733275
0.05068863273389189
0.04806735150153539
0.04544853586643945
0.04283213399930735
0.04021809385118177
0.0376063619998313
0.03499688534413637
0.03238960698952133
0.029784473699070797
0.027181420076786575
0.024580399104576062
0.021981320741348974
0.01938417090413118
0.016788783353330027
0.014195261538323522
0.011603244717367185
0.009013091570846394
0.006424246295097914
0.003836886579259952
0.0012473944403774094
0.851392092114964
0.8448387080727411
0.8295827349287646
0.8082935348029607
0.7849861819794219
0.7620481150674505
0.7406107397072844
0.7211084447114366
0.7036037852766699
0.6879720779416646
0.6740084035900304
0.6614870579085471
0.6501917954566258
0.6399291021550713
0.6305322453153375
0.621860697481359
0.6137975170960872
0.6062460619691825
0.5991267181682464