# vtk DataFile Version 3.0
jCFD simulation data
ASCII
DATASET UNSTRUCTURED_GRID
POINTS 8241 double
0.0 0.0 0.0
0.5 0.0 0.0
0.0 0.1 0.0
0.5 0.1 0.0
0.0025 0.0 0.0
0.005 0.0 0.0
0.0075 0.0 0.0
0.01 0.0 0.0
0.0125 0.0 0.0
0.015 0.0 0.0
0.0175 0.0 0.0
0.02 0.0 0.0
0.0225 0.0 0.0
0.025 0.0 0.0
0.0275 0.0 0.0
0.03 0.0 0.0
0.0325 0.0 0.0
0.035 0.0 0.0
0.0375 0.0 0.0
0.04 0.0 0.0
0.0425 0.0 0.0
0.045 0.0 0.0
0.0475 0.0 0.0
0.05 0.0 0.0
0.0525 0.0 0.0
0.055 0.0 0.0
0.0575 0.0 0.0
0.06 0.0 0.0
0.0625 0.0 0.0
0.065 0.0 0.0
0.0675 0.0 0.0
0.07 0.0 0.0
0.0725 0.0 0.0
0.075 0.0 0.0
0.0775 0.0 0.0
0.08 0.0 0.0
0.0825 0.0 0.0
0.085 0.0 0.0
0.08750000000000001 0.0 0.0
0.09 0.0 0.0
0.0925 0.0 0.0
0.095 0.0 0.0
0.0975 0.0 0.0
0.1 0.0 0.0
0.10250000000000001 0.0 0.0
0.105 0.0 0.0
0.1075 0.0 0.0
0.11 0.0 0.0
0.1125 0.0 0.0
0.115 0.0 0.0
0.11750000000000001 0.0 0.0
0.12 0.0 0.0
0.1225 0.0 0.0
0.125 0.0 0.0
0.1275 0.0 0.0
0.13 0.0 0.0
0.1325 0.0 0.0
0.135 0.0 0.0
0.1375 0.0 0.0
0.14 0.0 0.0
0.14250000000000002 0.0 0.0
0.145 0.0 0.0
0.1475 0.0 0.0
0.15 0.0 0.0
0.1525 0.0 0.0
0.155 0.0 0.0
0.1575 0.0 0.0
0.16 0.0 0.0
0.1625 0.0 0.0
0.165 0.0 0.0
0.1675 0.0 0.0
0.17 0.0 0.0
0.17250000000000001 0.0 0.0
0.17500000000000002 0.0 0.0
0.1775 0.0 0.0
0.18 0.0 0.0
0.1825 0.0 0.0
0.185 0.0 0.0
0.1875 0.0 0.0
0.19 0.0 0.0
0.1925 0.0 0.0
0.195 0.0 0.0
0.1975 0.0 0.0
0.2 0.0 0.0
0.2025 0.0 0.0
0.20500000000000002 0.0 0.0
0.20750000000000002 0.0 0.0
0.21 0.0 0.0
0.2125 0.0 0.0
0.215 0.0 0.0
0.2175 0.0 0.0
0.22 0.0 0.0
0.2225 0.0 0.0
0.225 0.0 0.0
0.2275 0.0 0.0
0.23 0.0 0.0
0.2325 0.0 0.0
0.23500000000000001 0.0 0.0
0.23750000000000002 0.0 0.0
0.24 0.0 0.0
0.2425 0.0 0.0
0.245 0.0 0.0
0.2475 0.0 0.0
0.25 0.0 0.0
0.2525 0.0 0.0
0.255 0.0 0.0
0.2575 0.0 0.0
0.26 0.0 0.0
0.2625 0.0 0.0
0.265 0.0 0.0
0.2675 0.0 0.0
0.27 0.0 0.0
0.2725 0.0 0.0
0.275 0.0 0.0
0.2775 0.0 0.0
0.28 0.0 0.0
0.28250000000000003 0.0 0.0
0.28500000000000003 0.0 0.0
0.28750000000000003 0.0 0.0
0.29 0.0 0.0
0.2925 0.0 0.0
0.295 0.0 0.0
0.2975 0.0 0.0
0.3 0.0 0.0
0.3025 0.0 0.0
0.305 0.0 0.0
0.3075 0.0 0.0
0.31 0.0 0.0
0.3125 0.0 0.0
0.315 0.0 0.0
0.3175 0.0 0.0
0.32 0.0 0.0
0.3225 0.0 0.0
0.325 0.0 0.0
0.3275 0.0 0.0
0.33 0.0 0.0
0.3325 0.0 0.0
0.335 0.0 0.0
0.3375 0.0 0.0
0.34 0.0 0.0
0.3425 0.0 0.0
0.34500000000000003 0.0 0.0
0.34750000000000003 0.0 0.0
0.35000000000000003 0.0 0.0
0.3525 0.0 0.0
0.355 0.0 0.0
0.3575 0.0 0.0
0.36 0.0 0.0
0.3625 0.0 0.0
0.365 0.0 0.0
0.3675 0.0 0.0
0.37 0.0 0.0
0.3725 0.0 0.0
0.375 0.0 0.0
0.3775 0.0 0.0
0.38 0.0 0.0
0.3825 0.0 0.0
0.385 0.0 0.0
0.3875 0.0 0.0
0.39 0.0 0.0
0.3925 0.0 0.0
0.395 0.0 0.0
0.3975 0.0 0.0
0.4 0.0 0.0
0.4025 0.0 0.0
0.405 0.0 0.0
0.40750000000000003 0.0 0.0
0.41000000000000003 0.0 0.0
0.41250000000000003 0.0 0.0
0.41500000000000004 0.0 0.0
0.4175 0.0 0.0
0.42 0.0 0.0
0.4225 0.0 0.0
0.425 0.0 0.0
0.4275 0.0 0.0
0.43 0.0 0.0
0.4325 0.0 0.0
0.435 0.0 0.0
0.4375 0.0 0.0
0.44 0.0 0.0
0.4425 0.0 0.0
0.445 0.0 0.0
0.4475 0.0 0.0
0.45 0.0 0.0
0.4525 0.0 0.0
0.455 0.0 0.0
0.4575 0.0 0.0
0.46 0.0 0.0
0.4625 0.0 0.0
0.465 0.0 0.0
0.4675 0.0 0.0
0.47000000000000003 0.0 0.0
0.47250000000000003 0.0 0.0
0.47500000000000003 0.0 0.0
0.47750000000000004 0.0 0.0
0.48 0.0 0.0
0.4825 0.0 0.0
0.485 0.0 0.0
0.4875 0.0 0.0
0.49 0.0 0.0
0.4925 0.0 0.0
0.495 0.0 0.0
0.4975 0.0 0.0
0.0025 0.1 0.0
0.005 0.1 0.0
0.0075 0.1 0.0
0.01 0.1 0.0
0.0125 0.1 0.0
0.015 0.1 0.0
0.0175 0.1 0.0
0.02 0.1 0.0
0.0225 0.1 0.0
0.025 0.1 0.0
0.0275 0.1 0.0
0.03 0.1 0.0
0.0325 0.1 0.0
0.035 0.1 0.0
0.0375 0.1 0.0
0.04 0.1 0.0
0.0425 0.1 0.0
0.045 0.1 0.0
0.0475 0.1 0.0
0.05 0.1 0.0
0.0525 0.1 0.0
0.055 0.1 0.0
0.0575 0.1 0.0
0.06 0.1 0.0
0.0625 0.1 0.0
0.065 0.1 0.0
0.0675 0.1 0.0
0.07 0.1 0.0
0.0725 0.1 0.0
0.075 0.1 0.0
0.0775 0.1 0.0
0.08 0.1 0.0
0.0825 0.1 0.0
0.085 0.1 0.0
0.08750000000000001 0.1 0.0
0.09 0.1 0.0
0.0925 0.1 0.0
0.095 0.1 0.0
0.0975 0.1 0.0
0.1 0.1 0.0
0.10250000000000001 0.1 0.0
0.105 0.1 0.0
0.1075 0.1 0.0
0.11 0.1 0.0
0.1125 0.1 0.0
0.115 0.1 0.0
0.11750000000000001 0.1 0.0
0.12 0.1 0.0
0.1225 0.1 0.0
0.125 0.1 0.0
0.1275 0.1 0.0
0.13 0.1 0.0
0.1325 0.1 0.0
0.135 0.1 0.0
0.1375 0.1 0.0
0.14 0.1 0.0
0.14250000000000002 0.1 0.0
0.145 0.1 0.0
0.1475 0.1 0.0
0.15 0.1 0.0
0.1525 0.1 0.0
0.155 0.1 0.0
0.1575 0.1 0.0
0.16 0.1 0.0
0.1625 0.1 0.0
0.165 0.1 0.0
0.1675 0.1 0.0
0.17 0.1 0.0
0.17250000000000001 0.1 0.0
0.17500000000000002 0.1 0.0
0.1775 0.1 0.0
0.18 0.1 0.0
0.1825 0.1 0.0
0.185 0.1 0.0
0.1875 0.1 0.0
0.19 0.1 0.0
0.1925 0.1 0.0
0.195 0.1 0.0
0.1975 0.1 0.0
0.2 0.1 0.0
0.2025 0.1 0.0
0.20500000000000002 0.1 0.0
0.20750000000000002 0.1 0.0
0.21 0.1 0.0
0.2125 0.1 0.0
0.215 0.1 0.0
0.2175 0.1 0.0
0.22 0.1 0.0
0.2225 0.1 0.0
0.225 0.1 0.0
0.2275 0.1 0.0
0.23 0.1 0.0
0.2325 0.1 0.0
0.23500000000000001 0.1 0.0
0.23750000000000002 0.1 0.0
0.24 0.1 0.0
0.2425 0.1 0.0
0.245 0.1 0.0
0.2475 0.1 0.0
0.25 0.1 0.0
0.2525 0.1 0.0
0.255 0.1 0.0
0.2575 0.1 0.0
0.26 0.1 0.0
0.2625 0.1 0.0
0.265 0.1 0.0
0.2675 0.1 0.0
0.27 0.1 0.0
0.2725 0.1 0.0
0.275 0.1 0.0
0.2775 0.1 0.0
0.28 0.1 0.0
0.28250000000000003 0.1 0.0
0.28500000000000003 0.1 0.0
0.28750000000000003 0.1 0.0
0.29 0.1 0.0
0.2925 0.1 0.0
0.295 0.1 0.0
0.2975 0.1 0.0
0.3 0.1 0.0
0.3025 0.1 0.0
0.305 0.1 0.0
0.3075 0.1 0.0
0.31 0.1 0.0
0.3125 0.1 0.0
0.315 0.1 0.0
0.3175 0.1 0.0
0.32 0.1 0.0
0.3225 0.1 0.0
0.325 0.1 0.0
0.3275 0.1 0.0
0.33 0.1 0.0
0.3325 0.1 0.0
0.335 0.1 0.0
0.3375 0.1 0.0
0.34 0.1 0.0
0.3425 0.1 0.0
0.34500000000000003 0.1 0.0
0.34750000000000003 0.1 0.0
0.35000000000000003 0.1 0.0
0.3525 0.1 0.0
0.355 0.1 0.0
0.3575 0.1 0.0
0.36 0.1 0.0
0.3625 0.1 0.0
0.365 0.1 0.0
0.3675 0.1 0.0
0.37 0.1 0.0
0.3725 0.1 0.0
0.375 0.1 0.0
0.3775 0.1 0.0
0.38 0.1 0.0
0.3825 0.1 0.0
0.385 0.1 0.0
0.3875 0.1 0.0
0.39 0.1 0.0
0.3925 0.1 0.0
0.395 0.1 0.0
0.3975 0.1 0.0
0.4 0.1 0.0
0.4025 0.1 0.0
0.405 0.1 0.0
0.40750000000000003 0.1 0.0
0.41000000000000003 0.1 0.0
0.41250000000000003 0.1 0.0
0.41500000000000004 0.1 0.0
0.4175 0.1 0.0
0.42 0.1 0.0
0.4225 0.1 0.0
0.425 0.1 0.0
0.4275 0.1 0.0
0.43 0.1 0.0
0.4325 0.1 0.0
0.435 0.1 0.0
0.4375 0.1 0.0
0.44 0.1 0.0
0.4425 0.1 0.0
0.445 0.1 0.0
0.4475 0.1 0.0
0.45 0.1 0.0
0.4525 0.1 0.0
0.455 0.1 0.0
0.4575 0.1 0.0
0.46 0.1 0.0
0.4625 0.1 0.0
0.465 0.1 0.0
0.4675 0.1 0.0
0.47000000000000003 0.1 0.0
0.47250000000000003 0.1 0.0
0.47500000000000003 0.1 0.0
0.47750000000000004 0.1 0.0
0.48 0.1 0.0
0.4825 0.1 0.0
0.485 0.1 0.0
0.4875 0.1 0.0
0.49 0.1 0.0
0.4925 0.1 0.0
0.495 0.1 0.0
0.4975 0.1 0.0
0.0 0.0025 0.0
0.0 0.005 0.0
0.0 0.0075 0.0
0.0 0.01 0.0
0.0 0.0125 0.0
0.0 0.015 0.0
0.0 0.0175 0.0
0.0 0.02 0.0
0.0 0.0225 0.0
0.0 0.025 0.0
0.0 0.0275 0.0
0.0 0.03 0.0
0.0 0.0325 0.0
0.0 0.035 0.0
0.0 0.0375 0.0
0.0 0.04 0.0
0.0 0.0425 0.0
0.0 0.045 0.0
0.0 0.0475 0.0
0.0 0.05 0.0
0.0 0.0525 0.0
0.0 0.055 0.0
0.0 0.0575 0.0
0.0 0.06 0.0
0.0 0.0625 0.0
0.0 0.065 0.0
0.0 0.0675 0.0
0.0 0.07 0.0
0.0 0.0725 0.0
0.0 0.075 0.0
0.0 0.0775 0.0
0.0 0.08 0.0
0.0 0.0825 0.0
0.0 0.085 0.0
0.0 0.08750000000000001 0.0
0.0 0.09 0.0
0.0 0.0925 0.0
0.0 0.095 0.0
0.0 0.0975 0.0
0.5 0.0025 0.0
0.5 0.005 0.0
0.5 0.0075 0.0
0.5 0.01 0.0
0.5 0.0125 0.0
0.5 0.015 0.0
0.5 0.0175 0.0
0.5 0.02 0.0
0.5 0.0225 0.0
0.5 0.025 0.0
0.5 0.0275 0.0
0.5 0.03 0.0
0.5 0.0325 0.0
0.5 0.035 0.0
0.5 0.0375 0.0
0.5 0.04 0.0
0.5 0.0425 0.0
0.5 0.045 0.0
0.5 0.0475 0.0
0.5 0.05 0.0
0.5 0.0525 0.0
0.5 0.055 0.0
0.5 0.0575 0.0
0.5 0.06 0.0
0.5 0.0625 0.0
0.5 0.065 0.0
0.5 0.0675 0.0
0.5 0.07 0.0
0.5 0.0725 0.0
0.5 0.075 0.0
0.5 0.0775 0.0
0.5 0.08 0.0
0.5 0.0825 0.0
0.5 0.085 0.0
0.5 0.08750000000000001 0.0
0.5 0.09 0.0
0.5 0.0925 0.0
0.5 0.095 0.0
0.5 0.0975 0.0
0.0025 0.0025 0.0
0.005 0.0025 0.0
0.0075 0.0025 0.0
0.01 0.0025 0.0
0.0125 0.0025 0.0
0.015 0.0025 0.0
0.0175 0.0025 0.0
0.02 0.0025 0.0
0.0225 0.0025 0.0
0.025 0.0025 0.0
0.0275 0.0025 0.0
0.03 0.0025 0.0
0.0325 0.0025 0.0
0.035 0.0025 0.0
0.0375 0.0025 0.0
0.04 0.0025 0.0
0.0425 0.0025 0.0
0.045 0.0025 0.0
0.0475 0.0025 0.0
0.05 0.0025 0.0
0.0525 0.0025 0.0
0.055 0.0025 0.0
0.0575 0.0025 0.0
0.06 0.0025 0.0
0.0625 0.0025 0.0
0.065 0.0025 0.0
0.0675 0.0025 0.0
0.07 0.0025 0.0
0.0725 0.0025 0.0
0.075 0.0025 0.0
0.0775 0.0025 0.0
0.08 0.0025 0.0
0.0825 0.0025 0.0
0.085 0.0025 0.0
0.08750000000000001 0.0025 0.0
0.09 0.0025 0.0
0.0925 0.0025 0.0
0.095 0.0025 0.0
0.0975 0.0025 0.0
0.1 0.0025 0.0
0.10250000000000001 0.0025 0.0
0.105 0.0025 0.0
0.1075 0.0025 0.0
0.11 0.0025 0.0
0.1125 0.0025 0.0
0.115 0.0025 0.0
0.11750000000000001 0.0025 0.0
0.12 0.0025 0.0
0.1225 0.0025 0.0
0.125 0.0025 0.0
0.1275 0.0025 0.0
0.13 0.0025 0.0
0.1325 0.0025 0.0
0.135 0.0025 0.0
0.1375 0.0025 0.0
0.14 0.0025 0.0
0.14250000000000002 0.0025 0.0
0.145 0.0025 0.0
0.1475 0.0025 0.0
0.15 0.0025 0.0
0.1525 0.0025 0.0
0.155 0.0025 0.0
0.1575 0.0025 0.0
0.16 0.0025 0.0
0.1625 0.0025 0.0
0.165 0.0025 0.0
0.1675 0.0025 0.0
0.17 0.0025 0.0
0.17250000000000001 0.0025 0.0
0.17500000000000002 0.0025 0.0
0.1775 0.0025 0.0
0.18 0.0025 0.0
0.1825 0.0025 0.0
0.185 0.0025 0.0
0.1875 0.0025 0.0
0.19 0.0025 0.0
0.1925 0.0025 0.0
0.195 0.0025 0.0
0.1975 0.0025 0.0
0.2 0.0025 0.0
0.2025 0.0025 0.0
0.20500000000000002 0.0025 0.0
0.20750000000000002 0.0025 0.0
0.21 0.0025 0.0
0.2125 0.0025 0.0
0.215 0.0025 0.0
0.2175 0.0025 0.0
0.22 0.0025 0.0
0.2225 0.0025 0.0
0.225 0.0025 0.0
0.2275 0.0025 0.0
0.23 0.0025 0.0
0.2325 0.0025 0.0
0.23500000000000001 0.0025 0.0
0.23750000000000002 0.0025 0.0
0.24 0.0025 0.0
0.2425 0.0025 0.0
0.245 0.0025 0.0
0.2475 0.0025 0.0
0.25 0.0025 0.0
0.2525 0.0025 0.0
0.255 0.0025 0.0
0.2575 0.0025 0.0
0.26 0.0025 0.0
0.2625 0.0025 0.0
0.265 0.0025 0.0
0.2675 0.0025 0.0
0.27 0.0025 0.0
0.2725 0.0025 0.0
0.275 0.0025 0.0
0.2775 0.0025 0.0
0.28 0.0025 0.0
0.28250000000000003 0.0025 0.0
0.28500000000000003 0.0025 0.0
0.28750000000000003 0.0025 0.0
0.29 0.0025 0.0
0.2925 0.0025 0.0
0.295 0.0025 0.0
0.2975 0.0025 0.0
0.3 0.0025 0.0
0.3025 0.0025 0.0
0.305 0.0025 0.0
0.3075 0.0025 0.0
0.31 0.0025 0.0
0.3125 0.0025 0.0
0.315 0.0025 0.0
0.3175 0.0025 0.0
0.32 0.0025 0.0
0.3225 0.0025 0.0
[...]
CELL_DATA 8000
SCALARS phi float 1
LOOKUP_TABLE CellColors
1.480424439114543
1.1753839030778233
0.9926849277176913
0.8739815652865912
0.7975538002609562
0.7483087507837247
0.7154006284884485
0.6921141617111268
0.6745741296821541
0.6605992592772503
0.6489524460478728
0.6389075341065928
0.6300159338085612
0.6219847324942793
0.6146128997739548
0.6077568689592868
0.6013109991534964
0.5951958034314834
0.5893504430997021
0.5837277134816417
0.5782905731249351
0.5730096766988353
0.5678615848918501
0.5628274433729958
0.5578919934600985
0.553042821328058
0.5482697813152788
0.5435645480482234
0.538920265123049
0.5343312670565505
0.5297928574814834
0.5253011309848179
0.5208528291487561
0.5164452236401761
0.51207602086632
0.5077432839518112
0.503445368717838
0.49918087104451125
0.4949485835324877
0.4907474597929561
0.4865765850168995
0.4824351517275599
0.47832243982065165
0.4742378001572005
0.4701806411029684
0.466150417513044
0.46214662174550747
0.45816877635804626
0.4542164281990646
0.4502891436525599
0.44638650483569414
0.4425081065810422
0.4386535540631239
0.4348224609519607
0.4310144479958157
0.42722914195157247
0.42346617479492416
0.4197251831540686
0.41600580792030106
0.4123076939970508
0.40863049015574915
0.4049738489726695
0.4013374268256872
0.3977208839339393
0.3941238844267207
0.3905460964307486
0.3869871921672488
0.38344684805223195
0.3799247447949073
0.3764205674904713
0.3729340057045609
0.3694647535475113
0.3660125097372394
0.36257697765011515
0.3591578653596057
0.35575488566280766
0.35236775609522664
0.34899619893434763
0.3456399411926696
0.342298714600959
0.33897225558253413
0.3356603052194109
0.3323626092111453
0.3290789178271926
0.32580898585357687
0.3225525725346275
0.3193094415104978
0.31607936075113285
0.31286210248730667
0.30965744313929583
0.3064651632437089
0.30328504737894285
0.30011688408968606
0.2969604658108487
0.29381558879125347
0.2906820530173827
0.2875596621374404
0.284448223385953
0.2813475475091034
0.2782574486909626
0.27517774448075905
0.2721082557213028
0.269048806478663
0.26599922397317394
0.26295933851183784
0.2599289834221694
0.25690799498752326
0.2538962123839286
0.2508934776184522
0.24789963546909716
0.24491453342624542
0.24193802163563938
0.23896995284289926
0.23601018233956395
0.23305856791064472
0.23011496978367213
0.2271792505792209
0.2242512752628889
0.22133091109870878
0.21841802760396706
0.21551249650540336
0.21261419169676368
0.20972298919767535
0.20683876711381582
0.20396140559833958
0.20109078681453235
0.19822679489965475
0.19536931592994183
0.1925182378867168
0.18967345062358482
0.18683484583466153
0.18400231702379916
0.18117575947476483
0.17835507022233005
0.17554014802422407
0.17273089333390962
0.16992720827413113
0.16712899661119227
0.16433616372991272
0.16154861660921868
0.15876626379831726
0.1559890153934067
0.15321678301487376
0.15044947978492812
0.14768702030562522
0.14492932063722577
0.1421762982768438
0.1394278721373299
0.13668396252634052
0.13394449112553908
0.1312093809698781
0.12847855642690528
0.12575194317604155
0.12302946818776987
0.12031105970267901
0.11759664721029602
0.11488616142764502
0.1121795342774592
0.10947669886597272
0.10677758946020824
0.10408214146467312
0.10139029139736076
0.09870197686495014
0.09601713653707394
0.09333571011951572
0.09065763832617021
0.08798286284958014
0.08531132632982834
0.08264297232153124
0.07997774525863292
0.07731559041664422
0.07465645387190865
0.07200028245739798
0.06934702371442805
0.06669662583961292
0.06404903762611121
0.061404208398298216
0.058762087938204345
0.05612262640296196
0.05348577422968406
0.05085148202877059
0.04821970045582924
0.04559038007229255
0.04296347116229092
0.04033892355545573
0.037716686337124085
0.035096707657802144
0.032478934194869385
0.029863311106570038
0.027249780859668872
0.024638283829332107
0.022028756232162033
0.019421129298135623
0.016815342459359225
0.01421125629574067
0.011609074311173232
0.009007131361656491
0.006413013298335077
0.0037746584329549967
0.0012142665406022983
1.2019650160294977
1.0726109587267425
0.9633135099277519
0.8768006531436847
0.8126244353756418
0.7661025490843658
0.7320271800965513
0.7063889116382425
0.6864515150002132
0.6704161969461325
0.6571074743344215
0.6457497562460706
0.6358217366480179
0.626964968599774
0.6189271105828944
0.6115264974367031
0.6046296603031099
0.598136750723194
0.5919718689477014
0.5860765019773833
0.5804049790832979
0.5749212647654142
0.5695966558297682
0.564408100583462
0.5593369532108129
0.5543680373797908
0.5494889329382352
0.5446894259325191
0.5399610798864591
0.5352968983175443
0.5306910567603259
0.5261386883544118
0.5216357111476535
0.5171786881983054
0.5127647136891046
0.5083913198310344
0.5040564004981951
0.49975814841027766
0.49549500334414565
0.4912656093664505
0.48706877947466487
0.4829034663430349
0.47876873811359666
0.47466375836596447
0.4705877695544953
0.4665400793262483
0.462520049234368
0.45852708544406273
0.45456063109602585
0.4506201600479017
0.4467051717605117
0.44281518713385476
0.43894974512978685
0.43510840004492934
0.4312907193196508
0.42749628178767096
0.42372467628653776
0.41997550056243027
0.4162483604138432
0.41254286902805265
0.4088586464721194
0.40519531930679764
0.4015525202972716
0.39792988819930053
0.39432706760326663
0.39074370882188614
0.38717946781007784
0.3836340061077565
0.38010699079821103
0.37659809447628834
0.37310699522189994
0.3696333765754202
0.36617692751241887
0.36273734241586714
0.3593143210445255
0.35590756849667454
0.35251679516870676
0.3491417167083778
0.345782053962732
0.3424375329208754
0.33910788465189107
0.335792845238273
0.3324921557053099
0.3292055619468815
0.32593281464814516
0.3226736692055893
0.31942788564492125
0.3161952285372365
0.3129754669138952
0.3097683741805012
0.3065737280303485
0.30339131035767186
0.3002209071710009
0.29706230850689036
0.2939153083442653
0.29077970451959284
0.28765529864306305
0.2845418960159369
0.28143930554919394
0.2783473396835937
0.2752658143112403
0.2721945486987266
0.26913336541191724
0.26608209024241203
0.2630405521357273
0.2600085831212113
0.25698601824371187
0.25397269549699647
0.25096845575892635
0.2479731427283745
0.2449866028638777
0.24200868532400377
0.23903924190941772
0.2360781270066208
0.23312519753334243
0.2301803128855544
0.2272433348860825
0.2243141277347851
0.22139255796026724
0.21847849437310107
0.21557180802051606
0.2126723721425296
0.20978006212947847
0.2068947554809204
0.20401633176586312
0.20114467258428897
0.19827966152993035
0.1954211841542608
0.19256912793165692
0.18972338222569182
0.186883838256514
0.18405038906927093
0.1812229295035285
0.1784013561636443
0.17558556739004388
0.17277546323135629
0.16997094541735694
0.16717191733267342
0.16437828399119975
0.1615899520111739
0.1588068295908658
0.15602882648482583
0.15325585398064312
0.15048782487616286
0.14772465345711064
0.14496625547507164
0.14221254812577422
0.13946345002762314
0.1367188812004313
0.13397876304429446
0.13124301831855512
0.12851157112079858
0.12578434686582496
0.12306127226453484
0.12034227530267025
0.11762728521934093
0.11491623248527127
0.11220904878068999
0.10950566697278549
0.10680602109263737
0.10411004631153017
0.10141767891654024
0.09872885628527826
0.0960435168596493
0.09336160011847797
0.09068304654881851
0.08800779761574556
0.08533579573038436
0.08266698421590006
0.08000130727111593
0.07733870993136668
0.07467913802612224
0.07202253813283159
0.06936885752629476
0.06671804412282116
0.06407004641804634
0.06142481341754849
0.058782294558093515
0.056142439619189
0.05350519861965027
0.0508705217026197
0.04823835899285474
0.0456086604473476
0.04298137564219647
0.04035645359131621
0.03773384238155457
0.035113489021486595
0.032495338676537644
0.029879334851034195
0.02726541746790241
0.02465352426869894
0.02204358672631033
0.019435529519431338
0.016829288604172873
0.014224684721290615
0.011622048072014217
0.009019339292000298
0.006425364361599286
0.0037917491915820346
0.0012210929394299846
1.0511162022326044
0.9952065835510908
0.9293083101533959
0.8662402548447805
0.8135315857585393
0.7718612559458421
0.7393606359933357
0.7138183338539883
0.693377021161438
0.6766428723472151
0.6626174864234824
0.6505965495701713
0.6400819365570999
0.6307171936144561
0.6222433646448147
0.6144694168122201
0.6072523898475767
0.60048388524507
0.594080712541129
0.5879783087143837
0.582126043641094
0.57648383012321
0.5710196483705172
0.5657077183054366
0.5605271350878329
0.5554608389213729
0.5504948284672706
0.5456175536767509
0.540819442259308
0.5360925268403233
0.5314301488562102
0.5268267215791999
0.5222775391763115
0.5177786219491158
0.5133265902562019
0.5089185613512507
0.5045520646566038
0.5002249719598331
0.4959354397561315
0.49168186152371485
0.48746282815663666
0.48327709512109507
0.4791235551704748
0.4750012156680328
0.4709091797369447
0.4668466305948739
0.46281281854151923
0.45880705015820467
0.4548286793527522
0.4508770999438708
0.44695173952967804
0.4430520544267358
0.4391775255007315
0.43532765473892393
0.4315019624387186
0.42769998490706496
0.4239212725824202
0.4201653885053814
0.4164319070761427
0.41272041304711354
0.409030500707582
0.4053617732245254
0.40171384210973976
0.3980863267885722
0.39447885424983364
0.39089105876008245
0.38732258162849464
0.38377307101106983
0.38024218174504276
0.3767295752061318
0.3732349191827269
0.36975788776233176
0.36629816122658154
0.3628554259519825
0.35942937431419386
0.35601970459422183
0.3526261208853436
0.34924833299992897
0.3458860563756155
0.34253901198051495
0.3392069262172979
0.33588953082613865
0.33258656278659793
0.3292977642185911
0.3260228822826393
0.32276166907962944
0.319513881550327
0.3162792813748908
0.3130576348726365
0.3098487129022871
0.3066522907629342
0.3034681480959188
0.3002960687878212
0.2971358408747302
0.2939872564479415
0.29085011156121676
0.2877242061397143
0.2846093438906844
0.28150533221600643
0.2784119821266277
0.2753291081589507
0.27225652829320046
0.2691940638737976
0.26614153953174213
0.263098783109019
0.2600656255850119
0.2570419010049206
0.25402744641016073
0.2510221017707275
0.24802570991949516
0.2450381164884275
0.24205916984666576
0.2390887210404649
0.2361266237349402
0.23317273415759412
0.23022691104358328
0.22728901558269204
0.22435891136797387
0.22143646434602351
0.21852154276884214
0.21561401714725514
0.21271376020584637
0.20982064683936535
0.20693455407057132
0.20405536100946806
0.2011829488138926
0.19831720065141117
0.19545800166248212
0.1926052389248381
0.1897588014190465
0.18691857999519731
0.18408446734067654
0.18125635794897244
0.1784341480894712
0.175617735778188
0.17280702074938853
0.1700019044280458
0.1672022899030862
0.16440808190136957
0.16161918676235465
0.15883551241339647
0.15605696834562405
0.15328346559034667
0.15051491669593584
0.14775123570513085
0.1449923381327138
0.142238140943504
0.1394885625306149
0.13674352269392243
0.13400294261868922
0.13126674485428919
0.12853485329297581
0.1258071931486375
0.1230836909354773
0.12036427444655752
0.11764887273213981
0.11493741607775498
0.11222983598192342
0.10952606513344922
0.10682603738819609
0.10412968774525112
0.10143695232236404
0.09874776833054337
0.09606207404766862
0.09337980879096207
0.09070091288813756
0.08802532764701598
0.08535299532336243
0.08268385908665711
0.08001786298346378
0.07735495189799298
0.07469507150938356
0.07203816824515161
0.06938418923007046
0.06673308222980526
0.06408479558797271
0.06143927815615814
0.0587964792138177
0.056156348379572146
0.05351883550473596
0.05088389056034462
0.048251463485483675
0.04562150405023893
0.042993961610994655
0.04036878498435451
0.037745921961615775
0.03512531938508179
0.032506921912127604
0.02989067309618891
0.02727651167533196
0.024664376278552082
0.022054195364081187
0.01944589617640741
0.016839412252428024
0.01423455808964462
0.011631700860037135
0.009028894339569833
0.006433495196097655
0.0038146267732965585
0.0012327371449993962
0.9570282371520941
0.93210448438587
0.8928459379234461
0.8489089821344471
0.8081175899410402
0.7730743647014845
0.7438467826234494
0.7196450561921204
0.6995136244130669
0.6825820418770205
0.668136823289743
0.6556209917714184
0.6446088382215378
0.6347769597341165
0.6258792594338464
0.6177274825883025
0.6101766650024336
0.603114388552378
0.596452847317815
0.590122962170966
0.5840699914522762
0.578250241249301
0.5726285884725175
0.567176606979525
0.5618711421847957
0.5566932199154001
0.5516272050920195
0.5466601479319547
0.5417812717265664
0.536981568274454
0.5322534758523759
0.5275906210238395
0.5229876102633556
0.5184398607926496
0.5139434625357466
0.5094950649573002
0.5050917839347762
0.5007311248596321
0.49641091895739176
0.492129270427113
0.4878845124741569
0.48367517068039856
0.47949993244788625
0.47535762148374494
0.471247176479468
0.4671676332868995
0.46311811001394443
0.45909779456130684
0.455105934201949
0.4511418268710123
0.4472048138884661
0.4432942738819152
0.43940961771454035
0.43555028425446063
0.4317157368479825
0.4279054603811361
0.424118958832324
0.4203557532343979
0.4166153799775253
0.41289738939520587
0.4092013445850754
0.4055268204239605
0.4018734027432564
0.39824068763627707
0.3946282808739259
0.39103579740900585
0.38746286095282684
0.38390910361057573
0.38037416556428383
0.3768576947942002
0.3733593468310483
0.3698787845330221
0.36641567788254237
0.3629697037987507
0.3595405459625174
0.3561278946514004
0.35273144658253036
0.34935090476184427
0.3459859783384488
0.3426363824631893
0.33930183815073506
0.335982072144678
0.3326768167852924
0.3293858098797165
0.326108794574408
0.32284551922978955
0.31959573729705165
0.3163592071971161
0.3131356922017827
0.30992496031710226
0.3067267841690199
0.3035409408913419
0.300367212016072
0.2972053833661604
0.29405524495070423
0.29091659086262645
0.2877892191788555
0.28467293186301723
0.2815675346706414
0.2784728370568798
0.27538865208672336
0.27231479634769706
0.269251089865011
0.2661973560191326
0.26315342146574905
0.2601191160580777
0.25709427277148483
0.25407872763036615
0.2510723196372465
0.24807489070404704
0.24508628558547702
0.24210635181449663
0.2391349396398085
0.23617190196532262
0.23321709429155374
0.230270374658899
0.22733160359275062
0.224400644050397
0.22147736136966512
0.2185616232192602
0.21565329955075319
0.21275226255217594
0.2098583866031721
0.20697154823166372
0.20409162607198245
0.20121850082442314
0.19835205521616878
0.19549217396354301
0.1926387437355389
0.1897916531185777
0.1869507925824455
0.18411605444736098
0.1812873328521195
0.17846452372326646
0.17564752474524348
0.17283623533145998
0.17003055659623229
0.1672303913275418
0.16443564396055532
0.16164622055185632
0.15886202875433278
0.1560829777926673
0.15330897843937766
0.15053994299135248
0.14777578524682994
0.14501642048276392
0.14226176543252766
0.1395117382638973
0.13676625855726443
0.1340252472840217
0.1312886267850669
0.12855632074936968
0.12582825419254376
0.12310435343536474
0.12038454608217314
0.11766876099909698
0.11495692829202728
0.11224897928427136
0.10954484649380733
0.10684446361005173
0.10414776547004742
0.10145468803396343
0.0987651683597915
0.0960791445771024
0.0933965558597097
0.09071734239706647
0.0880414453641882
0.0853688068898714
0.0826993700229241
0.08003307869609552
0.077369877687313
0.07470971257777813
0.07205252970641614
0.06939827611993318
0.06674689951801256
0.06409834819203278
0.06145257095778131
0.05880951707740493
0.05616913617619567
0.05353137813718131
0.05089619300193334
0.04826353081162366
0.04563334151188648
0.04300557465969296
0.04038017944275136
0.03775710396645137
0.03513629587402565
0.032517700139119116
0.02990126225446253
0.02728692053211932
0.024674619073957287
0.022064281667441527
0.019455853456068498
0.01684924111781937
0.01424433791399764
0.011641281835281465
0.009038940782118234
0.006441096609326988
0.0038336922199752
0.001242495403883939
0.8962359922197047
0.884202854574917
0.8602722433149801
0.8299035843022544
0.7990585516588034
0.7705475223432352
0.7452659239947113
0.7232484958729661
0.7041815073991151
0.6876402619239079
0.6731997317992844
0.6604808470495013
0.6491639236757581
0.6389869892936315
0.6297384535443024
0.6212485720992542
0.6133815079960414
0.6060285574360857
0.599102592893619
0.5925335937408125
0.586265089962849
0.5802513507786861
0.5744551714815643
0.5688461356228093
0.5633992517500138
0.558093883283133
0.5529129066532449
0.5478420466522282
0.5428693492494863
0.5379847611907314
0.5331797928154272
0.5284472460410188
0.5237809936776265
0.5191757994364727
0.5146271704147479
0.5101312356688041
0.5056846458743888
0.5012844901294186
0.4969282267654873
0.4926136256609156
0.48833872003635204
0.48410176609727823
0.4799012091910821
0.47573565538803175
0.47160384758931223
0.46750464542169545
0.46343700830531376
0.4593999811845112
0.45539268249655673
0.4514142940228032
0.44746405232455605
0.44354124151375085
0.4396451871483432
0.43577525107554527
0.43193082707384745
0.4281113371680978
0.4243162285115232
0.42054497074510266
0.41679705375863374
0.4130719857896102
0.4093692918059764
0.40568851212724805
0.4020292012456164
0.3983909268146892
0.3947732687786354
0.39117581861882916
0.38759817869875424
0.3840399616910305
0.3805007900730465
0.3769802956798993
0.3734781193052106
0.3699939103419648
0.3665273264568435
0.3630780332926434
0.3596457041943032
0.3562300199548465
0.35283066857820283
0.34944734505641484
0.3460797511591923
0.3427275952341498
0.33939059201637445
0.3360684624462262
0.33276093349447966
0.3294677379940913
0.3261886144780069
0.3229233070225447
0.31967156509597
0.3164331434119524
0.31320780178765417
0.3099953050062358
0.3067954226836063
0.3036079291392637
0.3004326032710959
0.29726922843402415
0.2941175923223812
0.29097748685592517
0.2878487080693921
0.28473105600549853
0.28162433461130115
0.2785283516378299
0.2754429185429035
0.27236785039704436
0.2693029657924066
0.2662480867546329
0.2632030386575582
0.2601676501406754
0.2571417530292867
0.2541251822572571
0.2511177757922977
0.24811937456369906
0.24512982239244652
0.24214896592364277
0.23917665456117265
0.23621274040454043
0.23325707818781982
0.23030952522065062
0.22736994133122473
0.22443818881120184
0.22151413236249823
0.2185976390458942
0.21568857823140275
0.21278682155035067
0.20989224284911362
0.2070047181444587
0.20412412558043624
0.20125034538677414
0.19838325983871768
0.1955227532182678
0.1926687117767587
0.18982102369872844
0.18697957906702273
0.18414426982908322
0.18131498976436267
0.1784916344528136
0.17567410124439437
0.17286228922953956
0.1700560992105356
0.16725543367374995
0.16446019676265447
0.16167029425159052
0.15888563352021834
0.15610612352859593
0.1533316747928334
0.15056219936126752
0.1477976107911017
0.14503782412545813
0.14228275587078942
0.13953232397459409
0.13678644780338498
0.13404504812085502
0.13130804706618923
0.1285753681324655
0.12584693614509324
0.12312267724022827
0.1204025188431111
0.11768638964626302
0.11497421958747978
0.11226593982755234
0.10956148272764284
0.10686078182623585
0.10416377181557893
0.10147038851751428
0.09878056885859468
0.09609425084436354
0.09341137353265754
0.09073187700578085
0.08805570234135995
0.08538279158168642
0.08271308770128326
0.08004653457244548
0.07738307692839291
0.07472266032367765
0.07206523109142735
0.0694107362967305
0.06675912368607255
0.06411034163078283
0.061464339066708895
0.05882106542235987
0.05618047054883273
0.05354250461976828
0.05090711806251702
0.048274261390098015
0.04564388519282907
0.043015939759021835
0.04039037538567345
0.037767141235509234
0.03514618703400699
0.03252745897705378
0.02991090712998601
0.02729646971953239
0.024684103309355235
0.022073722027687474
0.01946531456946034
0.016858719976336294
0.014254038439885725
0.011650919091631897
0.009049682634084729
0.006449833073907129
0.003851532101316112
0.0012522651044191788
0.8544147166580744
0.8478494058155266
0.8325974174025129
0.8113475365152237
0.7881289256027524
0.7653099831840839
0.7439864207580796
0.724565495963854
0.7070999070017816
0.6914672705964815
0.6774707805283984
0.6648945181399282
0.6535313532340246
0.6431950654094871
0.6337240627063025
0.6249809884000181
0.6168505311883944
0.6092366186525974
0.602059564241229
0.5952534242788594
0.588763664544353