# vtk DataFile Version 3.0
jCFD simulation data
ASCII
DATASET UNSTRUCTURED_GRID
POINTS 966 double
0.0 0.0 0.0
1.0 0.2 0.0
1.5 0.2 0.0
0.0 1.0 0.0
1.0 0.8 0.0
1.5 0.8 0.0
0.04 0.008 0.0
0.08 0.016 0.0
0.12 0.024 0.0
0.16 0.032 0.0
0.2 0.04 0.0
0.24 0.048 0.0
0.28 0.056 0.0
0.32 0.064 0.0
0.36 0.07200000000000001 0.0
0.4 0.08 0.0
0.44 0.088 0.0
0.48 0.096 0.0
0.52 0.10400000000000001 0.0
0.56 0.112 0.0
0.6 0.12 0.0
0.64 0.128 0.0
0.68 0.136 0.0
0.72 0.14400000000000002 0.0
0.76 0.152 0.0
0.8 0.16 0.0
0.84 0.168 0.0
0.88 0.176 0.0
0.92 0.184 0.0
0.96 0.192 0.0
1.025 0.2 0.0
1.05 0.2 0.0
1.075 0.2 0.0
1.1 0.2 0.0
1.125 0.2 0.0
1.15 0.2 0.0
1.175 0.2 0.0
1.2 0.2 0.0
1.225 0.2 0.0
1.25 0.2 0.0
1.275 0.2 0.0
1.3 0.2 0.0
1.325 0.2 0.0
1.35 0.2 0.0
1.375 0.2 0.0
1.4 0.2 0.0
1.425 0.2 0.0
1.45 0.2 0.0
1.475 0.2 0.0
0.04 0.992 0.0
0.08 0.984 0.0
0.12 0.976 0.0
0.16 0.968 0.0
0.2 0.96 0.0
0.24 0.952 0.0
0.28 0.9440000000000001 0.0
0.32 0.936 0.0
0.36 0.928 0.0
0.4 0.92 0.0
0.44 0.912 0.0
0.48 0.904 0.0
0.52 0.896 0.0
0.56 0.888 0.0
0.6 0.88 0.0
0.64 0.872 0.0
0.68 0.864 0.0
0.72 0.8560000000000001 0.0
0.76 0.8480000000000001 0.0
0.8 0.8400000000000001 0.0
0.84 0.8320000000000001 0.0
0.88 0.8240000000000001 0.0
0.92 0.8160000000000001 0.0
0.96 0.808 0.0
1.025 0.8 0.0
1.05 0.8 0.0
1.075 0.8 0.0
1.1 0.8 0.0
1.125 0.8 0.0
1.15 0.8 0.0
1.175 0.8 0.0
1.2 0.8 0.0
1.225 0.8 0.0
1.25 0.8 0.0
1.275 0.8 0.0
1.3 0.8 0.0
1.325 0.8 0.0
1.35 0.8 0.0
1.375 0.8 0.0
1.4 0.8 0.0
1.425 0.8 0.0
1.45 0.8 0.0
1.475 0.8 0.0
0.0 0.05 0.0
0.0 0.1 0.0
0.0 0.15000000000000002 0.0
0.0 0.2 0.0
0.0 0.25 0.0
0.0 0.30000000000000004 0.0
0.0 0.35000000000000003 0.0
0.0 0.4 0.0
0.0 0.45 0.0
0.0 0.5 0.0
0.0 0.55 0.0
0.0 0.6000000000000001 0.0
0.0 0.65 0.0
0.0 0.7000000000000001 0.0
0.0 0.75 0.0
0.0 0.8 0.0
0.0 0.8500000000000001 0.0
0.0 0.9 0.0
0.0 0.9500000000000001 0.0
1.0 0.23 0.0
1.0 0.26 0.0
1.0 0.29000000000000004 0.0
1.0 0.32000000000000006 0.0
1.0 0.35000000000000003 0.0
1.0 0.38000000000000006 0.0
1.0 0.41000000000000003 0.0
1.0 0.44000000000000006 0.0
1.0 0.4700000000000001 0.0
1.0 0.5 0.0
1.0 0.53 0.0
1.0 0.56 0.0
1.0 0.5900000000000001 0.0
1.0 0.6200000000000001 0.0
1.0 0.6500000000000001 0.0
1.0 0.6800000000000002 0.0
1.0 0.7100000000000002 0.0
1.0 0.7400000000000002 0.0
1.0 0.77 0.0
1.5 0.23 0.0
1.5 0.26 0.0
1.5 0.29000000000000004 0.0
1.5 0.32000000000000006 0.0
1.5 0.35000000000000003 0.0
1.5 0.38000000000000006 0.0
1.5 0.41000000000000003 0.0
1.5 0.44000000000000006 0.0
1.5 0.4700000000000001 0.0
1.5 0.5 0.0
1.5 0.53 0.0
1.5 0.56 0.0
1.5 0.5900000000000001 0.0
1.5 0.6200000000000001 0.0
1.5 0.6500000000000001 0.0
1.5 0.6800000000000002 0.0
1.5 0.7100000000000002 0.0
1.5 0.7400000000000002 0.0
1.5 0.77 0.0
0.04 0.0572 0.0
0.08 0.0644 0.0
0.12 0.0716 0.0
0.16 0.07880000000000001 0.0
0.2 0.086 0.0
0.24 0.0932 0.0
0.28 0.1004 0.0
0.32 0.1076 0.0
0.36 0.1148 0.0
0.4 0.122 0.0
0.44 0.12919999999999998 0.0
0.48 0.13640000000000002 0.0
0.52 0.1436 0.0
0.56 0.1508 0.0
0.6 0.158 0.0
0.64 0.1652 0.0
0.68 0.1724 0.0
0.72 0.17959999999999998 0.0
0.76 0.18680000000000002 0.0
0.8 0.194 0.0
0.84 0.2012 0.0
0.88 0.20839999999999997 0.0
0.92 0.2156 0.0
0.96 0.2228 0.0
0.04 0.10640000000000001 0.0
0.08 0.11280000000000001 0.0
0.12 0.1192 0.0
0.16 0.12560000000000002 0.0
0.2 0.132 0.0
0.24 0.13840000000000002 0.0
0.28 0.1448 0.0
0.32 0.1512 0.0
0.36 0.15760000000000002 0.0
0.4 0.164 0.0
0.44 0.1704 0.0
0.48 0.1768 0.0
0.52 0.18320000000000003 0.0
0.56 0.1896 0.0
0.6 0.196 0.0
0.64 0.20240000000000002 0.0
0.68 0.2088 0.0
0.72 0.2152 0.0
0.76 0.22160000000000002 0.0
0.8 0.228 0.0
0.84 0.23440000000000003 0.0
0.88 0.24080000000000001 0.0
0.92 0.2472 0.0
0.96 0.25360000000000005 0.0
0.04 0.15560000000000002 0.0
0.08 0.1612 0.0
0.12 0.16680000000000003 0.0
0.16 0.17240000000000003 0.0
0.2 0.17800000000000002 0.0
0.24 0.18360000000000004 0.0
0.28 0.18920000000000003 0.0
0.32 0.19480000000000003 0.0
0.36 0.20040000000000002 0.0
0.4 0.20600000000000002 0.0
0.44 0.21160000000000004 0.0
0.48 0.21720000000000003 0.0
0.52 0.22280000000000003 0.0
0.56 0.22840000000000005 0.0
0.6 0.23400000000000004 0.0
0.64 0.23960000000000004 0.0
0.68 0.24520000000000003 0.0
0.72 0.2508 0.0
0.76 0.2564000000000001 0.0
0.8 0.262 0.0
0.84 0.26760000000000006 0.0
0.88 0.27320000000000005 0.0
0.92 0.27880000000000005 0.0
0.96 0.28440000000000004 0.0
0.04 0.2048 0.0
0.08 0.2096 0.0
0.12 0.2144 0.0
0.16 0.2192 0.0
0.2 0.22400000000000003 0.0
0.24 0.2288 0.0
0.28 0.23360000000000003 0.0
0.32 0.23840000000000003 0.0
0.36 0.24320000000000003 0.0
0.4 0.24800000000000003 0.0
0.44 0.2528 0.0
0.48 0.25760000000000005 0.0
0.52 0.2624 0.0
0.56 0.26720000000000005 0.0
0.6 0.272 0.0
0.64 0.27680000000000005 0.0
0.68 0.2816 0.0
0.72 0.28640000000000004 0.0
0.76 0.2912 0.0
0.8 0.29600000000000004 0.0
0.84 0.30080000000000007 0.0
0.88 0.30560000000000004 0.0
0.92 0.3104 0.0
0.96 0.31520000000000004 0.0
0.04 0.254 0.0
0.08 0.258 0.0
0.12 0.262 0.0
0.16 0.266 0.0
0.2 0.27 0.0
0.24 0.274 0.0
0.28 0.278 0.0
0.32 0.28200000000000003 0.0
0.36 0.28600000000000003 0.0
0.4 0.29000000000000004 0.0
0.44 0.29400000000000004 0.0
0.48 0.29800000000000004 0.0
0.52 0.302 0.0
0.56 0.306 0.0
0.6 0.31 0.0
0.64 0.314 0.0
0.68 0.318 0.0
0.72 0.322 0.0
0.76 0.326 0.0
0.8 0.33 0.0
0.84 0.334 0.0
0.88 0.338 0.0
0.92 0.342 0.0
0.96 0.34600000000000003 0.0
0.04 0.3032 0.0
0.08 0.30640000000000006 0.0
0.12 0.30960000000000004 0.0
0.16 0.3128 0.0
0.2 0.31600000000000006 0.0
0.24 0.31920000000000004 0.0
0.28 0.3224 0.0
0.32 0.32560000000000006 0.0
0.36 0.32880000000000004 0.0
0.4 0.3320000000000001 0.0
0.44 0.33520000000000005 0.0
0.48 0.33840000000000003 0.0
0.52 0.34160000000000007 0.0
0.56 0.34480000000000005 0.0
0.6 0.34800000000000003 0.0
0.64 0.35120000000000007 0.0
0.68 0.35440000000000005 0.0
0.72 0.35760000000000003 0.0
0.76 0.36080000000000007 0.0
0.8 0.36400000000000005 0.0
0.84 0.3672000000000001 0.0
0.88 0.37040000000000006 0.0
0.92 0.37360000000000004 0.0
0.96 0.3768 0.0
0.04 0.35240000000000005 0.0
0.08 0.35480000000000006 0.0
0.12 0.3572 0.0
0.16 0.35960000000000003 0.0
0.2 0.36200000000000004 0.0
0.24 0.36440000000000006 0.0
0.28 0.3668 0.0
0.32 0.36920000000000003 0.0
0.36 0.37160000000000004 0.0
0.4 0.37400000000000005 0.0
0.44 0.3764 0.0
0.48 0.3788 0.0
0.52 0.38120000000000004 0.0
0.56 0.38360000000000005 0.0
0.6 0.386 0.0
0.64 0.3884 0.0
0.68 0.39080000000000004 0.0
0.72 0.39320000000000005 0.0
0.76 0.39560000000000006 0.0
0.8 0.398 0.0
0.84 0.40040000000000003 0.0
0.88 0.40280000000000005 0.0
0.92 0.40520000000000006 0.0
0.96 0.4076 0.0
0.04 0.4016 0.0
0.08 0.4032 0.0
0.12 0.40480000000000005 0.0
0.16 0.40640000000000004 0.0
0.2 0.40800000000000003 0.0
0.24 0.4096 0.0
0.28 0.4112 0.0
0.32 0.41280000000000006 0.0
0.36 0.41440000000000005 0.0
0.4 0.41600000000000004 0.0
0.44 0.4176 0.0
0.48 0.4192 0.0
0.52 0.42080000000000006 0.0
0.56 0.42240000000000005 0.0
0.6 0.42400000000000004 0.0
0.64 0.42560000000000003 0.0
0.68 0.4272 0.0
0.72 0.42880000000000007 0.0
0.76 0.43040000000000006 0.0
0.8 0.43200000000000005 0.0
0.84 0.43360000000000004 0.0
0.88 0.43520000000000003 0.0
0.92 0.4368000000000001 0.0
0.96 0.43840000000000007 0.0
0.04 0.45080000000000003 0.0
0.08 0.4516 0.0
0.12 0.4524 0.0
0.16 0.45320000000000005 0.0
0.2 0.454 0.0
0.24 0.45480000000000004 0.0
0.28 0.4556 0.0
0.32 0.45640000000000003 0.0
0.36 0.45720000000000005 0.0
0.4 0.458 0.0
0.44 0.45880000000000004 0.0
0.48 0.45960000000000006 0.0
0.52 0.46040000000000003 0.0
0.56 0.46120000000000005 0.0
0.6 0.4620000000000001 0.0
0.64 0.46280000000000004 0.0
0.68 0.46360000000000007 0.0
0.72 0.46440000000000003 0.0
0.76 0.46520000000000006 0.0
0.8 0.4660000000000001 0.0
0.84 0.46680000000000005 0.0
0.88 0.46760000000000007 0.0
0.92 0.4684000000000001 0.0
0.96 0.46920000000000006 0.0
0.04 0.5 0.0
0.08 0.5 0.0
0.12 0.5 0.0
0.16 0.5 0.0
0.2 0.5 0.0
0.24 0.5 0.0
0.28 0.5 0.0
0.32 0.5 0.0
0.36 0.5 0.0
0.4 0.5 0.0
0.44 0.5 0.0
0.48 0.5 0.0
0.52 0.5 0.0
0.56 0.5 0.0
0.6 0.5 0.0
0.64 0.5 0.0
0.68 0.5 0.0
0.72 0.5 0.0
0.76 0.5 0.0
0.8 0.5 0.0
0.84 0.5 0.0
0.88 0.5 0.0
0.92 0.5 0.0
0.96 0.5 0.0
0.04 0.5492 0.0
0.08 0.5484 0.0
0.12 0.5476000000000001 0.0
0.16 0.5468000000000001 0.0
0.2 0.546 0.0
0.24 0.5452 0.0
0.28 0.5444 0.0
0.32 0.5436000000000001 0.0
0.36 0.5428000000000001 0.0
0.4 0.542 0.0
0.44 0.5412 0.0
0.48 0.5404 0.0
0.52 0.5396000000000001 0.0
0.56 0.5388000000000001 0.0
0.6 0.538 0.0
0.64 0.5372 0.0
0.68 0.5364 0.0
0.72 0.5356000000000001 0.0
0.76 0.5348 0.0
0.8 0.534 0.0
0.84 0.5332 0.0
0.88 0.5324 0.0
0.92 0.5316000000000001 0.0
0.96 0.5308 0.0
0.04 0.5984 0.0
0.08 0.5968000000000001 0.0
0.12 0.5952000000000001 0.0
0.16 0.5936000000000001 0.0
0.2 0.5920000000000001 0.0
0.24 0.5904 0.0
0.28 0.5888000000000001 0.0
0.32 0.5872 0.0
0.36 0.5856000000000001 0.0
0.4 0.5840000000000001 0.0
0.44 0.5824 0.0
0.48 0.5808000000000001 0.0
0.52 0.5792 0.0
0.56 0.5776000000000001 0.0
0.6 0.5760000000000001 0.0
0.64 0.5744 0.0
0.68 0.5728000000000001 0.0
0.72 0.5712 0.0
0.76 0.5696000000000001 0.0
0.8 0.5680000000000001 0.0
0.84 0.5664 0.0
0.88 0.5648000000000001 0.0
0.92 0.5632 0.0
0.96 0.5616000000000001 0.0
0.04 0.6476000000000001 0.0
0.08 0.6452 0.0
0.12 0.6428 0.0
0.16 0.6404000000000001 0.0
0.2 0.638 0.0
0.24 0.6356 0.0
0.28 0.6332 0.0
0.32 0.6308 0.0
0.36 0.6284000000000001 0.0
0.4 0.626 0.0
0.44 0.6236 0.0
0.48 0.6212000000000001 0.0
0.52 0.6188 0.0
0.56 0.6164000000000001 0.0
0.6 0.6140000000000001 0.0
0.64 0.6116 0.0
0.68 0.6092000000000001 0.0
0.72 0.6068 0.0
0.76 0.6044 0.0
0.8 0.6020000000000001 0.0
0.84 0.5996 0.0
0.88 0.5972000000000001 0.0
0.92 0.5948000000000001 0.0
0.96 0.5924 0.0
0.04 0.6968000000000001 0.0
0.08 0.6936000000000001 0.0
0.12 0.6904000000000001 0.0
0.16 0.6872 0.0
0.2 0.684 0.0
0.24 0.6808000000000001 0.0
0.28 0.6776000000000001 0.0
0.32 0.6744000000000001 0.0
0.36 0.6712000000000001 0.0
0.4 0.668 0.0
0.44 0.6648000000000001 0.0
0.48 0.6616000000000001 0.0
0.52 0.6584000000000001 0.0
0.56 0.6552000000000001 0.0
0.6 0.6520000000000001 0.0
[...]
CELL_DATA 900
SCALARS phi float 1
LOOKUP_TABLE CellColors
97.81054619115251
94.61693489628328
92.09037769891066
89.97470752356271
88.13093092965725
86.47671377932981
84.95941226351754
83.54317893383885
82.20234456267835
80.91778343268055
79.6747897747831
78.46176719246968
77.26938076628804
76.08998855054476
74.91725389039334
73.74589040208778
72.57152379248903
71.39068866415703
70.20102514814886
69.00182694306255
67.79528322204514
66.58923249197213
65.40359425263729
64.28713480014649
63.36911120704372
98.84131306450871
96.52101298350541
94.37913133640875
92.43177628135406
90.65252645397455
89.00893107328801
87.47214400522915
86.01853362921568
84.62914623551589
83.28878209566774
81.9851574071653
80.70824005360205
79.44974413893316
78.2027504524515
76.96142581382017
75.72082711200767
74.47679033819762
73.2259258741215
71.96577540181443
70.69524486131337
69.41554471922704
68.13210185762239
66.85828866826881
65.6219542542203
64.47042894506386
99.23622323603078
97.54622567354515
95.82861772281167
94.14940843146803
92.53299975723262
90.98301612831257
89.49398411218216
88.05712691966465
86.6630239389844
85.30273188690276
83.968186074554
82.65227867984431
81.3487995231074
80.05232925244894
78.75812324278692
77.46201193056466
76.16033543531061
74.84993623639807
73.52824688917985
72.19353369553498
70.84538261230811
69.48550594355062
68.11867744292863
66.7520702282904
65.384389002564
99.43707161967895
98.14817735396907
96.76618828782023
95.34342053839347
93.91246048496062
92.4908329836321
91.08625554097308
89.70063805267974
88.33270727197197
86.97959695480071
85.63775876175391
84.30345839131722
82.9730237515338
81.64295272999559
80.30994216573586
78.9708775025264
77.62280911291336
76.2629360263234
74.88861313502056
73.49739311079492
72.08707354947985
70.65560224134818
69.20023468425602
67.71396528576773
66.17364172878106
99.55683481872742
98.52776238831856
97.39041803890338
96.17790098286422
94.91671260314317
93.62576541266795
92.31741797566957
90.99908369261009
89.67473147510391
88.34605670828971
87.01331126861245
85.67585578726153
84.33250663457801
82.98174015865641
81.62180007122643
80.25074009706985
78.86642117695591
77.4664773637328
76.04824612373568
74.60863111831836
73.14381890393598
71.64860918676153
70.11474832891953
68.5268448683656
66.85317805449334
99.63396988277918
98.77799491291792
97.8146842845729
96.76331234370156
95.64230412234849
94.46734143775464
93.25078209930096
92.00184188879535
90.72710194963027
89.43107884804945
88.11673071388371
86.78585640193783
85.43938488400002
84.07756925525241
82.70010272560106
81.30617051383733
79.8944437041235
78.46301710856
77.00927162749575
75.52960205418259
74.01891739328374
72.46967209258256
70.8699559387158
69.19979849619291
67.42462941520262
99.68509016139262
98.94567670301328
98.10405842139336
97.17085689728351
96.15798020146985
95.07712494843875
93.93886993931355
92.7522684366218
91.52477249076782
90.26233769322037
88.9696008261915
87.65006616423705
86.30626728145863
84.93988906082511
83.5518447418471
82.14230411328448
80.71066480015988
79.25545614700845
77.77414563653042
76.26277390630507
74.71532961899923
73.12265829972488
71.47057840125012
69.73675521370964
67.88601779985444
99.71855476380712
99.05609219454537
98.29661973448478
97.44563340590281
96.51057457533342
95.49984715112495
94.42201808119357
93.28525743405544
92.09699791748109
90.86376154434552
89.59109697574284
88.28358097064823
86.94484836690755
85.57762603842471
84.18375263893496
82.7641681400559
81.31885403214392
79.84670371566108
78.34528611063779
76.81042097536672
75.23548964444002
73.61031233755506
71.91937589490465
70.13918868146045
68.23474203710352
99.73889062681185
99.12340901301401
98.41474708433658
97.61556519049434
96.73060584916566
95.76606566139266
94.72896372733088
93.62659032275455
92.46607367735488
91.2540686901078
89.99655173014769
88.69869667551212
87.36480596305931
85.99827192804801
84.60154533011031
83.1760886538654
81.7222881432678
80.23929756720895
78.72477261861476
77.17441200437904
75.58123852270384
73.93448069812328
72.21790587286677
70.4074957129479
68.46854863595047
99.74852393861794
99.1553512409597
98.47098340837766
97.69682097013421
96.83634810937501
95.89467400078989
94.87800238190232
93.79311095757681
92.64689544942517
91.44600543540051
90.19657509030019
88.90403819255371
87.5730076394642
86.20719691108361
84.80935931069241
83.3812199567162
81.92337140789105
80.43510267090093
78.9141190160706
77.35606727121592
75.75380607637753
74.09629628513942
72.36699359477213
70.54168095758348
68.58585530363813
99.74852380101497
99.15535085551016
98.4709828253419
97.69682023435853
96.8363472909727
95.89467317027302
94.87800159432871
93.79311021394157
92.64689482462322
91.44600498404766
90.1965748559308
88.90403821159312
87.57300794046544
86.20719751186496
84.80936025506053
83.38122122988806
81.92337298126458
80.43510436632059
78.91412062237065
77.35606870849224
75.75380730687304
74.09629730171456
72.366994422263
70.54168164874825
68.58585601685337
99.73889021733652
99.12340787130243
98.4147453593221
97.61556301004974
96.7306033987991
95.76606314009463
94.72896132031538
93.62658816023762
92.46607187719268
91.25406740820623
89.99655109385417
88.69869679519003
87.36480692538129
85.99827379932498
84.60154819484815
83.17609250023433
81.72229290586685
80.23930282757671
78.72477748946937
77.17441633606859
75.58124221871078
73.9344837454282
72.21790835528132
70.40749776261514
68.46855071349822
99.71855408284388
99.05609034255679
98.29661694768923
97.44562988914541
96.51057061735253
95.4998430711415
94.42201419339418
93.28525399973236
92.09699516928724
90.86375964728603
89.59109612801173
88.28358136972557
86.94485014705295
85.57762930891955
84.18375751804379
82.76417461840752
81.31886200913827
79.84671260175296
78.34529433314289
76.81042825806487
75.23549582639393
73.61031741799523
71.91938008725934
70.1391920624801
68.23474549113747
99.6850892577492
98.94567423326389
98.10405471616649
97.17085224019442
96.15797497812673
95.07711958717385
93.93886487051182
92.75226403975624
91.52476909410828
90.26233553832694
88.96960010156538
87.650067134388
86.30627012644332
84.93989392942859
83.55185178239736
82.14231331306246
80.71067596746173
79.25546828768994
77.77415739009908
76.2627842691412
74.71533837469235
73.12266545075249
71.47058415704143
69.73676000283209
67.88602249756786
99.6339687985859
98.77799194646052
97.81467985894473
96.76330682885428
95.64229798957217
94.46733520726913
93.2507762936587
92.00183697794098
90.7270983356797
89.43107680228981
88.11673050685553
86.78585829525377
85.43938908320996
84.07757594506688
82.70011209490511
81.30618256515373
79.89445811571777
78.4630322893187
77.00928630822375
75.52961548564846
74.0189286752763
72.46968129334681
70.86996326968003
69.199804414307
67.42463522673549
99.55683359987688
98.52775907072458
97.39041315264978
96.1778949637935
94.9167060004243
93.62575881613246
92.31741196841504
90.99907878788602
89.67472814006487
88.34605524857267
87.01331196866501
85.67585889661888
84.33251239049406
82.98174878991053
81.62181183575628
80.25075505628625
78.86643872658952
77.46649513097898
76.04826314120832
74.60864672950508
73.14383239078053
71.64862024104616
70.11475712079817
68.52685180164849
66.85318514690825
99.43707030566246
98.14817382514016
96.7661831882924
95.34341436544568
93.91245383348515
92.49082648421118
91.0862498102922
89.70063363877219
88.33270460384483
86.97959620621225
85.63776036576856
84.30346259153383
82.973030856261
81.64296303545267
80.30995598550297
78.97089508095375
77.6228293647219
76.2629556205546
74.88863175342628
73.49741009293038
72.08708818985268
70.65561440900925
69.20024434911326
67.71397307388419
66.17364979064
99.23622185880872
97.54622205230538
95.82861261055209
94.14940233738619
92.53299329485536
90.98300994630716
89.49397884512234
88.05712313846017
86.6630221024573
85.30273231212936
83.9681890136423
82.65228421823045
81.34880811222304
80.05234120086439
78.75813888991476
77.46203153825805
76.16035773167306
74.84995754732853
73.52826649063226
72.19355135734747
70.84539771668705
69.48551844625925
68.11868761113035
66.75207862820876
65.3843978515183
98.84131166329452
96.52100938435939
94.37912631644788
92.43177036790448
90.65252027264887
89.00892527946439
87.47213924141731
86.0185304791683
84.62914516854933
83.28878346236715
81.98516146202482
80.70824702974981
79.44975425916292
78.20276394172025
76.96144302356163
75.72084830796545
74.47681412223632
73.2259484481487
71.96579568468175
70.69526252909503
69.41555984537742
68.13211430013567
66.85829885644021
65.62196298460171
64.47043872487006
97.81054475112239
94.61693124391184
92.09037267157632
89.97470168553176
88.13092492235043
86.47670826264788
84.95940787814114
83.54317626042922
82.20234407188505
80.91778545654438
79.67479456012843
78.461774957735
77.269391735185
76.0900028837624
74.91727186224989
73.74591222011112
72.57154811748948
71.39071181862147
70.20104571681863
69.00184476309337
67.7952982312916
66.58924495702473
65.40360468006341
64.28714419438386
63.369122176670004
63.12233793736122
62.537216223298515
61.66873357481437
60.56469131820117
59.24450655839123
57.71295295345082
55.96612512802409
53.99421597232602
51.782875400520766
49.31387360114547
46.56539903428579
43.51213981591538
40.125230177431156
36.37209677614793
32.21623168313546
27.616901686994066
22.528801064495262
16.90164994700085
10.67974001701103
3.8014274495281466
63.633536282571576
62.84059459298773
61.86591579885221
60.70139036775424
59.34355127341861
57.7869038138077
56.02249192236538
54.03780323114012
51.816922917496655
49.340656087954066
46.58656301229713
43.52890376042027
40.13850887694055
36.38258216027513
32.22444677473582
27.62323608789156
22.533535369117303
16.90496995496919
10.681743507769504
3.8021240529060214
64.24724973710772
63.27840361191469
62.18245225656972
60.93484853124092
59.51903541212303
57.92091696440314
56.12612043186158
54.118703967445896
51.880530237480855
49.390921232875
46.62641495261606
43.560546628913684
40.16361796270658
36.40243532549947
32.24001599233916
27.63524972503164
22.54251901585365
16.911272274046297
10.685547526903559
3.8034468032587068
64.85022167788473
63.750576884026884
62.54862998201493
61.218760621579996
59.740033739615534
58.09385477717546
56.26216048255627
54.22621097123833
51.96580324536156
49.45874106112208
46.68044008575852
43.60359454425726
40.197866802908116
36.42956883377892
32.26132681127738
27.65171191740413
22.554839010833927
16.919919417431533
10.690768679029322
3.8052626852679206
65.40096832973741
64.20434842555102
62.916723125740845
61.5148070167394
59.97716826090393
58.283525344182245
56.4138566515969
54.34759872149942
52.062999448868524
49.536597991549435
46.742797721619404
43.653486996736255
40.23768588741459
36.46119044740411
32.28620657990859
27.670956914084755
22.56925597302848
16.93004574267907
10.696885579934563
3.807390356493981
65.8792234914472
64.61030004108282
63.255746236305605
61.794643806675104
60.20629466739063
58.47011377944667
56.565252417231775
54.470135237932205
52.161997198824224
49.61645398991399
46.80710506240971
43.7051568383127
40.27905809885455
36.49412822745655
32.312171818399484
27.691070214614644
22.584339104711397
16.94064779475239
10.703292886163357
3.809619386860245
66.2729017444728
64.95066738236952
63.545470461083596
62.038153262568976
60.40893107200493
58.63744546436065
56.70261738447997
54.582385962028184
52.253391896183736
49.6906372860688
46.86714058827111
43.753583283518886
40.31795252519526
36.52516722002392
32.3366853556837
27.71008560560449
22.598613527342348
16.95068828515558
10.709363708193893
3.8117319321187497
66.57409396728443
65.21412481515338
63.77254547788823
62.23137329963603
60.57157451159885
58.77313435860242
56.814997397460026
54.674909862005066
52.32919443518731
49.752478423128245
46.91739414750173
43.79425322190291
40.35070297774632
36.55135679309721
32.357402125798416
27.726175492904908
22.610702796760357
16.959197379866776
10.714510670532524
3.8135234039921184
66.77756133752857
65.39338929545617
63.92827491268055
62.364944272211545
60.684867230963725
58.86831194179404
56.8943126951929
54.74055945940711
52.383221538391496
49.796719634747454
46.95345574769611
43.823510112096116
40.37430955287137
36.57026412229441
32.37237684900372
27.737816878610424
22.619455638364208
16.965361216214387
10.718240220235993
3.814821743232615
66.88007035928356
65.48406219173741
64.00738710401725
62.433103480876326
60.74293023108603
58.91728791717987
56.935274356767785
54.77457097610378
52.41128760784793
49.81975444000959
46.97226678829325
43.838794936435356
40.38665758941707
36.58016378796687
32.38022345578806
27.743920377581293
22.62404677847012
16.968595353773367
10.720197520714155
3.815503293487082
66.8800713902182
65.48406248312887
64.0073867271404
62.43310250282667
60.74292896848351
58.91728642838358
56.9352727597639
54.77456933953191
52.41128599414277
49.81975288309275
46.97226530648854
43.838793670383225
40.38665614955305
36.58016250334642
32.38022234270013
27.743919369103775
22.624045942469344
16.968594739721233
10.72019716358169
3.815503179924628
66.77756405898828
65.39339008542223
63.928273703021574
62.36494139305131
60.68486335838028
58.86830756864859
56.89430796978322
54.740554622177434
52.38321674795848
49.79671509583109
46.95345119545833
43.823505974598355
40.37430535858469
36.57026036376771
32.37237369755562
27.73781388436226
22.61945314639316
16.965359398278594
10.718239243388474
3.8148216072808174
66.57409887851666
65.21412627791005
63.77254366283595
62.231368869273965
60.57156831603732
58.77312707688578
56.81498970433017
54.67490207436451
52.32918647238474
49.75247079343248
46.91738658593762
43.794246235184815
40.35069614875354
36.55135060976465
32.357396849486285
27.726170762583944
22.610698656629143
16.95919433897537
10.714508982418266
3.81352304607924
66.27290871734779
64.95066939587898
63.54546823157954
62.038147550065105
60.40892298259555
58.63743575050107
56.7026067640459
54.582375118536504
52.253380914475436
49.6906266744694
46.86713017648758
43.75357361794107
40.317943347887436
36.52515866003181
32.336677934957976
27.71007901559398
22.59860779423911
16.950684012676724
10.709361348932049
3.8117314670463713
65.87923117995686
64.61030234844121
63.25574375457859
61.794637229076
60.206285171981214
58.470102213446964
56.565239610812235
54.470121629193095
52.161983349502
49.616440545301195
46.807092012158655
43.705144626505316
40.279046552852726
36.494117463626644
32.31216234125017
27.691061775239042
22.584331771048507
16.94064205874773
10.703289708672362
3.8096185408865377
65.40097779075899
64.20435154190321
62.916720816435316
61.5148000719031
59.97715788060602
58.28351253457382
56.413841948924556
54.34758314180702
52.06298340167869
49.53658215384705
46.742782216527324
43.65347236671602
40.237672043491436
36.46117770406696
32.2861951349498
27.670946621878656
22.56924714236961
16.93003903023295
10.696881798305245
3.807389099035016
64.85023304317683
63.75058112840579
62.54862818998804
61.21875385927806
59.74002296242974
58.09384090770259
56.26214476759051
54.22619401581763
51.96578570496298
49.45872355763953
46.68042282512019
43.603577994191475
40.19785100292378
36.429554298786194
32.26131328515215
27.65170014619233
22.554829266739386
16.919912208413628
10.69076458381529
3.805261291545047
64.24726262509397
63.27840903526279
62.18245116242322
60.93484206868397
59.5190244784162
57.92090277538335
56.126104008139656
54.118686159469306
51.8805118188452
49.390902570798964
46.62639649175084
43.560528819743354
40.16360073776832
36.402419393976515
32.240001585021005
27.635237239546214
22.54250884540746
16.91126454008377
10.685543177979756
3.8034454937769273
63.63355036064824
62.84060101986507
61.865915385586106
60.70138426938831
59.3435407389334
57.78688975288204
56.022475477925
54.03778525097098
51.816903947200814
49.34063689801129
46.586543981711564
43.52888540397075
40.13849139283156
36.382565860004846
32.224431782358536
27.623223085724028
22.53352475478835
16.90496213405349
10.68173908939192
3.8021226612770618
63.122354298965114
62.53722383510102
61.66873392426407
60.56468578864344
59.24449654130487
57.71293954910023
55.9661091255019
53.99419857136563
51.78285703566415
49.313854728840305
46.56537995274497
43.512121283176405
40.12521252518053
36.37208033861943
32.21621675129071
27.616888699310472
22.528790452959843
16.901642170569062
10.679735616139704
3.8014259390614487
