# vtk DataFile Version 3.0
jCFD simulation data
ASCII
DATASET UNSTRUCTURED_GRID
POINTS 3321 double
0.0 0.0 0.0
1.0 0.0 0.0
0.0 0.5 0.0
1.0 0.5 0.0
0.0125 0.0 0.0
0.025 0.0 0.0
0.037500000000000006 0.0 0.0
0.05 0.0 0.0
0.0625 0.0 0.0
0.07500000000000001 0.0 0.0
0.08750000000000001 0.0 0.0
0.1 0.0 0.0
0.1125 0.0 0.0
0.125 0.0 0.0
0.1375 0.0 0.0
0.15000000000000002 0.0 0.0
0.1625 0.0 0.0
0.17500000000000002 0.0 0.0
0.1875 0.0 0.0
0.2 0.0 0.0
0.21250000000000002 0.0 0.0
0.225 0.0 0.0
0.23750000000000002 0.0 0.0
0.25 0.0 0.0
0.2625 0.0 0.0
0.275 0.0 0.0
0.28750000000000003 0.0 0.0
0.30000000000000004 0.0 0.0
0.3125 0.0 0.0
0.325 0.0 0.0
0.3375 0.0 0.0
0.35000000000000003 0.0 0.0
0.36250000000000004 0.0 0.0
0.375 0.0 0.0
0.3875 0.0 0.0
0.4 0.0 0.0
0.41250000000000003 0.0 0.0
0.42500000000000004 0.0 0.0
0.4375 0.0 0.0
0.45 0.0 0.0
0.4625 0.0 0.0
0.47500000000000003 0.0 0.0
0.48750000000000004 0.0 0.0
0.5 0.0 0.0
0.5125000000000001 0.0 0.0
0.525 0.0 0.0
0.5375 0.0 0.0
0.55 0.0 0.0
0.5625 0.0 0.0
0.5750000000000001 0.0 0.0
0.5875 0.0 0.0
0.6000000000000001 0.0 0.0
0.6125 0.0 0.0
0.625 0.0 0.0
0.6375000000000001 0.0 0.0
0.65 0.0 0.0
0.6625000000000001 0.0 0.0
0.675 0.0 0.0
0.6875 0.0 0.0
0.7000000000000001 0.0 0.0
0.7125 0.0 0.0
0.7250000000000001 0.0 0.0
0.7375 0.0 0.0
0.75 0.0 0.0
0.7625000000000001 0.0 0.0
0.775 0.0 0.0
0.7875000000000001 0.0 0.0
0.8 0.0 0.0
0.8125 0.0 0.0
0.8250000000000001 0.0 0.0
0.8375 0.0 0.0
0.8500000000000001 0.0 0.0
0.8625 0.0 0.0
0.875 0.0 0.0
0.8875000000000001 0.0 0.0
0.9 0.0 0.0
0.9125000000000001 0.0 0.0
0.925 0.0 0.0
0.9375 0.0 0.0
0.9500000000000001 0.0 0.0
0.9625 0.0 0.0
0.9750000000000001 0.0 0.0
0.9875 0.0 0.0
0.0125 0.5 0.0
0.025 0.5 0.0
0.037500000000000006 0.5 0.0
0.05 0.5 0.0
0.0625 0.5 0.0
0.07500000000000001 0.5 0.0
0.08750000000000001 0.5 0.0
0.1 0.5 0.0
0.1125 0.5 0.0
0.125 0.5 0.0
0.1375 0.5 0.0
0.15000000000000002 0.5 0.0
0.1625 0.5 0.0
0.17500000000000002 0.5 0.0
0.1875 0.5 0.0
0.2 0.5 0.0
0.21250000000000002 0.5 0.0
0.225 0.5 0.0
0.23750000000000002 0.5 0.0
0.25 0.5 0.0
0.2625 0.5 0.0
0.275 0.5 0.0
0.28750000000000003 0.5 0.0
0.30000000000000004 0.5 0.0
0.3125 0.5 0.0
0.325 0.5 0.0
0.3375 0.5 0.0
0.35000000000000003 0.5 0.0
0.36250000000000004 0.5 0.0
0.375 0.5 0.0
0.3875 0.5 0.0
0.4 0.5 0.0
0.41250000000000003 0.5 0.0
0.42500000000000004 0.5 0.0
0.4375 0.5 0.0
0.45 0.5 0.0
0.4625 0.5 0.0
0.47500000000000003 0.5 0.0
0.48750000000000004 0.5 0.0
0.5 0.5 0.0
0.5125000000000001 0.5 0.0
0.525 0.5 0.0
0.5375 0.5 0.0
0.55 0.5 0.0
0.5625 0.5 0.0
0.5750000000000001 0.5 0.0
0.5875 0.5 0.0
0.6000000000000001 0.5 0.0
0.6125 0.5 0.0
0.625 0.5 0.0
0.6375000000000001 0.5 0.0
0.65 0.5 0.0
0.6625000000000001 0.5 0.0
0.675 0.5 0.0
0.6875 0.5 0.0
0.7000000000000001 0.5 0.0
0.7125 0.5 0.0
0.7250000000000001 0.5 0.0
0.7375 0.5 0.0
0.75 0.5 0.0
0.7625000000000001 0.5 0.0
0.775 0.5 0.0
0.7875000000000001 0.5 0.0
0.8 0.5 0.0
0.8125 0.5 0.0
0.8250000000000001 0.5 0.0
0.8375 0.5 0.0
0.8500000000000001 0.5 0.0
0.8625 0.5 0.0
0.875 0.5 0.0
0.8875000000000001 0.5 0.0
0.9 0.5 0.0
0.9125000000000001 0.5 0.0
0.925 0.5 0.0
0.9375 0.5 0.0
0.9500000000000001 0.5 0.0
0.9625 0.5 0.0
0.9750000000000001 0.5 0.0
0.9875 0.5 0.0
0.0 0.0125 0.0
0.0 0.025 0.0
0.0 0.037500000000000006 0.0
0.0 0.05 0.0
0.0 0.0625 0.0
0.0 0.07500000000000001 0.0
0.0 0.08750000000000001 0.0
0.0 0.1 0.0
0.0 0.1125 0.0
0.0 0.125 0.0
0.0 0.1375 0.0
0.0 0.15000000000000002 0.0
0.0 0.1625 0.0
0.0 0.17500000000000002 0.0
0.0 0.1875 0.0
0.0 0.2 0.0
0.0 0.21250000000000002 0.0
0.0 0.225 0.0
0.0 0.23750000000000002 0.0
0.0 0.25 0.0
0.0 0.2625 0.0
0.0 0.275 0.0
0.0 0.28750000000000003 0.0
0.0 0.30000000000000004 0.0
0.0 0.3125 0.0
0.0 0.325 0.0
0.0 0.3375 0.0
0.0 0.35000000000000003 0.0
0.0 0.36250000000000004 0.0
0.0 0.375 0.0
0.0 0.3875 0.0
0.0 0.4 0.0
0.0 0.41250000000000003 0.0
0.0 0.42500000000000004 0.0
0.0 0.4375 0.0
0.0 0.45 0.0
0.0 0.4625 0.0
0.0 0.47500000000000003 0.0
0.0 0.48750000000000004 0.0
1.0 0.0125 0.0
1.0 0.025 0.0
1.0 0.037500000000000006 0.0
1.0 0.05 0.0
1.0 0.0625 0.0
1.0 0.07500000000000001 0.0
1.0 0.08750000000000001 0.0
1.0 0.1 0.0
1.0 0.1125 0.0
1.0 0.125 0.0
1.0 0.1375 0.0
1.0 0.15000000000000002 0.0
1.0 0.1625 0.0
1.0 0.17500000000000002 0.0
1.0 0.1875 0.0
1.0 0.2 0.0
1.0 0.21250000000000002 0.0
1.0 0.225 0.0
1.0 0.23750000000000002 0.0
1.0 0.25 0.0
1.0 0.2625 0.0
1.0 0.275 0.0
1.0 0.28750000000000003 0.0
1.0 0.30000000000000004 0.0
1.0 0.3125 0.0
1.0 0.325 0.0
1.0 0.3375 0.0
1.0 0.35000000000000003 0.0
1.0 0.36250000000000004 0.0
1.0 0.375 0.0
1.0 0.3875 0.0
1.0 0.4 0.0
1.0 0.41250000000000003 0.0
1.0 0.42500000000000004 0.0
1.0 0.4375 0.0
1.0 0.45 0.0
1.0 0.4625 0.0
1.0 0.47500000000000003 0.0
1.0 0.48750000000000004 0.0
0.0125 0.0125 0.0
0.025 0.0125 0.0
0.037500000000000006 0.0125 0.0
0.05 0.0125 0.0
0.0625 0.0125 0.0
0.07500000000000001 0.0125 0.0
0.08750000000000001 0.0125 0.0
0.1 0.0125 0.0
0.1125 0.0125 0.0
0.125 0.0125 0.0
0.1375 0.0125 0.0
0.15000000000000002 0.0125 0.0
0.1625 0.0125 0.0
0.17500000000000002 0.0125 0.0
0.1875 0.0125 0.0
0.2 0.0125 0.0
0.21250000000000002 0.0125 0.0
0.225 0.0125 0.0
0.23750000000000002 0.0125 0.0
0.25 0.0125 0.0
0.2625 0.0125 0.0
0.275 0.0125 0.0
0.28750000000000003 0.0125 0.0
0.30000000000000004 0.0125 0.0
0.3125 0.0125 0.0
0.325 0.0125 0.0
0.3375 0.0125 0.0
0.35000000000000003 0.0125 0.0
0.36250000000000004 0.0125 0.0
0.375 0.0125 0.0
0.3875 0.0125 0.0
0.4 0.0125 0.0
0.41250000000000003 0.0125 0.0
0.42500000000000004 0.0125 0.0
0.4375 0.0125 0.0
0.45 0.0125 0.0
0.4625 0.0125 0.0
0.47500000000000003 0.0125 0.0
0.48750000000000004 0.0125 0.0
0.5 0.0125 0.0
0.5125000000000001 0.0125 0.0
0.525 0.0125 0.0
0.5375 0.0125 0.0
0.55 0.0125 0.0
0.5625 0.0125 0.0
0.5750000000000001 0.0125 0.0
0.5875 0.0125 0.0
0.6000000000000001 0.0125 0.0
0.6125 0.0125 0.0
0.625 0.0125 0.0
0.6375000000000001 0.0125 0.0
0.65 0.0125 0.0
0.6625000000000001 0.0125 0.0
0.675 0.0125 0.0
0.6875 0.0125 0.0
0.7000000000000001 0.0125 0.0
0.7125 0.0125 0.0
0.7250000000000001 0.0125 0.0
0.7375 0.0125 0.0
0.75 0.0125 0.0
0.7625000000000001 0.0125 0.0
0.775 0.0125 0.0
0.7875000000000001 0.0125 0.0
0.8 0.0125 0.0
0.8125 0.0125 0.0
0.8250000000000001 0.0125 0.0
0.8375 0.0125 0.0
0.8500000000000001 0.0125 0.0
0.8625 0.0125 0.0
0.875 0.0125 0.0
0.8875000000000001 0.0125 0.0
0.9 0.0125 0.0
0.9125000000000001 0.0125 0.0
0.925 0.0125 0.0
0.9375 0.0125 0.0
0.9500000000000001 0.0125 0.0
0.9625 0.0125 0.0
0.9750000000000001 0.0125 0.0
0.9875 0.0125 0.0
0.0125 0.025 0.0
0.025 0.025 0.0
0.037500000000000006 0.025 0.0
0.05 0.025 0.0
0.0625 0.025 0.0
0.07500000000000001 0.025 0.0
0.08750000000000001 0.025 0.0
0.1 0.025 0.0
0.1125 0.025 0.0
0.125 0.025 0.0
0.1375 0.025 0.0
0.15000000000000002 0.025 0.0
0.1625 0.025 0.0
0.17500000000000002 0.025 0.0
0.1875 0.025 0.0
0.2 0.025 0.0
0.21250000000000002 0.025 0.0
0.225 0.025 0.0
0.23750000000000002 0.025 0.0
0.25 0.025 0.0
0.2625 0.025 0.0
0.275 0.025 0.0
0.28750000000000003 0.025 0.0
0.30000000000000004 0.025 0.0
0.3125 0.025 0.0
0.325 0.025 0.0
0.3375 0.025 0.0
0.35000000000000003 0.025 0.0
0.36250000000000004 0.025 0.0
0.375 0.025 0.0
0.3875 0.025 0.0
0.4 0.025 0.0
0.41250000000000003 0.025 0.0
0.42500000000000004 0.025 0.0
0.4375 0.025 0.0
0.45 0.025 0.0
0.4625 0.025 0.0
0.47500000000000003 0.025 0.0
0.48750000000000004 0.025 0.0
0.5 0.025 0.0
0.5125000000000001 0.025 0.0
0.525 0.025 0.0
0.5375 0.025 0.0
0.55 0.025 0.0
0.5625 0.025 0.0
0.5750000000000001 0.025 0.0
0.5875 0.025 0.0
0.6000000000000001 0.025 0.0
0.6125 0.025 0.0
0.625 0.025 0.0
0.6375000000000001 0.025 0.0
0.65 0.025 0.0
0.6625000000000001 0.025 0.0
0.675 0.025 0.0
0.6875 0.025 0.0
0.7000000000000001 0.025 0.0
0.7125 0.025 0.0
0.7250000000000001 0.025 0.0
0.7375 0.025 0.0
0.75 0.025 0.0
0.7625000000000001 0.025 0.0
0.775 0.025 0.0
0.7875000000000001 0.025 0.0
0.8 0.025 0.0
0.8125 0.025 0.0
0.8250000000000001 0.025 0.0
0.8375 0.025 0.0
0.8500000000000001 0.025 0.0
0.8625 0.025 0.0
0.875 0.025 0.0
0.8875000000000001 0.025 0.0
0.9 0.025 0.0
0.9125000000000001 0.025 0.0
0.925 0.025 0.0
0.9375 0.025 0.0
0.9500000000000001 0.025 0.0
0.9625 0.025 0.0
0.9750000000000001 0.025 0.0
0.9875 0.025 0.0
0.0125 0.037500000000000006 0.0
0.025 0.037500000000000006 0.0
0.037500000000000006 0.037500000000000006 0.0
0.05 0.037500000000000006 0.0
0.0625 0.037500000000000006 0.0
0.07500000000000001 0.037500000000000006 0.0
0.08750000000000001 0.037500000000000006 0.0
0.1 0.037500000000000006 0.0
0.1125 0.037500000000000006 0.0
0.125 0.037500000000000006 0.0
0.1375 0.037500000000000006 0.0
0.15000000000000002 0.037500000000000006 0.0
0.1625 0.037500000000000006 0.0
0.17500000000000002 0.037500000000000006 0.0
0.1875 0.037500000000000006 0.0
0.2 0.037500000000000006 0.0
0.21250000000000002 0.037500000000000006 0.0
0.225 0.037500000000000006 0.0
0.23750000000000002 0.037500000000000006 0.0
0.25 0.037500000000000006 0.0
0.2625 0.037500000000000006 0.0
0.275 0.037500000000000006 0.0
0.28750000000000003 0.037500000000000006 0.0
0.30000000000000004 0.037500000000000006 0.0
0.3125 0.037500000000000006 0.0
0.325 0.037500000000000006 0.0
0.3375 0.037500000000000006 0.0
0.35000000000000003 0.037500000000000006 0.0
0.36250000000000004 0.037500000000000006 0.0
0.375 0.037500000000000006 0.0
0.3875 0.037500000000000006 0.0
0.4 0.037500000000000006 0.0
0.41250000000000003 0.037500000000000006 0.0
0.42500000000000004 0.037500000000000006 0.0
0.4375 0.037500000000000006 0.0
0.45 0.037500000000000006 0.0
0.4625 0.037500000000000006 0.0
0.47500000000000003 0.037500000000000006 0.0
0.48750000000000004 0.037500000000000006 0.0
0.5 0.037500000000000006 0.0
0.5125000000000001 0.037500000000000006 0.0
0.525 0.037500000000000006 0.0
0.5375 0.037500000000000006 0.0
0.55 0.037500000000000006 0.0
0.5625 0.037500000000000006 0.0
0.5750000000000001 0.037500000000000006 0.0
0.5875 0.037500000000000006 0.0
0.6000000000000001 0.037500000000000006 0.0
0.6125 0.037500000000000006 0.0
0.625 0.037500000000000006 0.0
0.6375000000000001 0.037500000000000006 0.0
[...]
CELL_DATA 3200
SCALARS phi float 1
LOOKUP_TABLE CellColors
0.002756337056606384
0.0011813992074891644
-0.0007981406928063706
-0.0016046224919943342
-0.0018514701190976979
-0.001893853255458211
-0.0018675879734217915
-0.0018194365342818486
-0.0017648777932599558
-0.0017088267867624296
-0.0016526851469276238
-0.001596731143104435
-0.0015409342258525527
-0.0014852271499812275
-0.0014295875769150257
-0.0013740525085275124
-0.0013187103610228235
-0.0012636870594882055
-0.0012091321575713465
-0.0011552069060538628
-0.0011020747203236425
-0.00104989392984578
-0.0009988125114404056
-0.0009489644754729909
-0.0009004675943806717
-0.0008534221985652124
-0.0008079108019494186
-0.0007639983579945664
-0.0007217329774071857
-0.000681146970096691
-0.000642258098997317
-0.0006050709571852053
-0.0005695783992010206
-0.0005357629746285397
-0.0005035983258778742
-0.00047305052324730923
-0.00044407931904189013
-0.00041663930923085957
-0.0003906809960332325
-0.000366151748597332
-0.00034299666169079757
-0.00032115931446341506
-0.00030058243293407116
-0.00028120846120049947
-0.00026298004730662683
-0.0002458404504670497
-0.00022973387677094337
-0.00021460575077991706
-0.00020040293033751766
-0.00018707387170646683
-0.0001745687517606953
-0.0001628395532939919
-0.00015184011902658057
-0.00014152617907825515
-0.00013185535612869614
-0.00012278715185498612
-0.0001142829177673832
-0.00010630581319404087
-9.882075287936942e-5
-9.17943465474913e-5
-8.51948328279839e-5
-7.899201005523437e-5
-7.315716690570184e-5
-6.766301649197004e-5
-6.248363879457486e-5
-5.7594438402919224e-5
-5.297212813726304e-5
-4.859475603646857e-5
-4.444180544593834e-5
-4.0494423270587276e-5
-3.673587254460209e-5
-3.315240512336004e-5
-2.9734952432303174e-5
-2.648250569747823e-5
-2.340922824450864e-5
-2.0560533414148985e-5
-1.8052649489952444e-5
-1.618000435665845e-5
-1.5738201445458788e-5
-1.9097153497377173e-5
0.009752338894947197
0.0067495947520174165
0.0016867593603614442
-0.0013524609807427648
-0.0029284798543152695
-0.0037222235915013134
-0.004116702684890673
-0.0043018814633088995
-0.004371015479992525
-0.004371381832886379
-0.004328210399956452
-0.004255811033519737
-0.004162854529507493
-0.004054965992138223
-0.003936047033845096
-0.003808974709530729
-0.003675983608233953
-0.0035388808133515796
-0.0033991704823543825
-0.0032581280451943234
-0.0031168459679140025
-0.0029762632503968463
-0.00283718558238277
-0.0027003001404832224
-0.002566187321759181
-0.002435330731345717
-0.002308126150443732
-0.0021848898727555555
-0.0020658665914941015
-0.001951236905978211
-0.0018411244581170696
-0.0017356026829937182
-0.0016347011487505263
-0.0015384114649366607
-0.0014466927458503581
-0.0013594766238758645
-0.0012766718158363486
-0.0011981682519007762
-0.0011238407814528884
-0.0010535524739507844
-0.0009871575353620433
-0.0009245038625968514
-0.0008654352598336276
-0.0008097933416620308
-0.0007574191488529695
-0.0007081545029596865
-0.0006618431260971303
-0.0006183315517875565
-0.0005774698519686614
-0.0005391122038601888
-0.0005031173186634236
-0.0004693487520801581
-0.0004376751143862743
-0.00040797019560043365
-0.0003801130192063198
-0.00035398783596804294
-0.00032948406775007547
-0.00030649621007433457
-0.00028492370119578933
-0.0002646707649531242
-0.00024564623470890593
-0.00022776336594324066
-0.00021093964611765156
-0.0001950966123358967
-0.0001801596906322179
-0.00016605807627370538
-0.0001527246837086665
-0.0001400962134950188
-0.00012811341218478588
-0.0001167216753882043
-0.00010587222351518487
-9.55243355429961e-5
-8.564956206109873e-5
-7.623983322383619e-5
-6.732359270605223e-5
-5.899949466359851e-5
-5.1510785470387964e-5
-4.541962743348827e-5
-4.204160252009433e-5
-4.4589484224420966e-5
0.016699792830554554
0.014187863842848864
0.00817306080456714
0.00315339164441708
-0.0002765766983395257
-0.0024826416957723888
-0.003879587804282713
-0.004760519761493054
-0.005309939148415154
-0.005640930673919686
-0.005823423085798966
-0.005901763503386719
-0.005905015902633876
-0.005852925944475888
-0.0057594049540116215
-0.0056346011221466916
-0.0054861571847766785
-0.005319991690946884
-0.005140795669901493
-0.004952356149123821
-0.004757772106021845
-0.004559602584612571
-0.004359971296889748
-0.0041606428777610175
-0.003963080368964158
-0.003768490055215674
-0.003577857576074479
-0.003391977854297341
-0.0032114804923183376
-0.0030368517162163255
-0.0028684535834877477
-0.0027065409389195848
-0.0025512764566332194
-0.0024027440160140326
-0.002260960602112901
-0.002125886883620751
-0.0019974365976532767
-0.0018754848529534106
-0.001759875450089985
-0.0016504273070233665
-0.0015469400700865354
-0.0014491989838452727
-0.0013569790879519638
-0.0012700488049868712
-0.0011881729797338964
-0.0011111154274365202
-0.001038641045726655
-0.0009705175419406853
-0.0009065168242859718
-0.0008464161017907063
-0.0007899987338896807
-0.000737054866414152
-0.0006873818863682673
-0.0006407847237863161
-0.0005970760248837101
-0.0005560762173839575
-0.0005176134857468057
-0.0004815236718601318
-0.0004476501149167104
-0.00041584344270540055
-0.0003859613268597495
-0.0003578682146759838
-0.0003314350507835332
-0.00030653900490070044
-0.00028306322579427315
-0.0002608966509543688
-0.00023993390822416106
-0.00022007537487933476
-0.0002012274884583005
-0.00018330350503303953
-0.00016622495100301798
-0.00014992432107972846
-0.00013434993979960432
-0.00011947466348992448
-0.00010531155247243302
-9.194213294854511e-5
-7.95661559859463e-5
-6.858270739694724e-5
-5.968733945141086e-5
-5.3800613762352e-5
0.020837783462487883
0.018948676385996403
0.0135978894770683
0.008083776572172244
0.0035877711290835407
0.000243512129818879
-0.002148621469759416
-0.003830019952068277
-0.004998878163631206
-0.0058000733753421655
-0.0063353591247317055
-0.006675657538567076
-0.006870812766093814
-0.006956435664338951
-0.006958490281133722
-0.006896320645376203
-0.006784647273848362
-0.006634894577026162
-0.006456083756030402
-0.0062554426627475885
-0.006038829676935361
-0.0058110339015232625
-0.0055759923040604705
-0.005336950352032019
-0.005096583658743844
-0.00485709237408177
-0.004620276123487585
-0.004387594809869552
-0.004160218893571596
-0.003939071639973161
-0.003724865070657555
-0.003518130850281574
-0.0033192470071358154
-0.0031284611576282133
-0.0029459107495327765
-0.0027716407321909373
-0.0026056189860110255
-0.002447749785633445
-0.002297885528484976
-0.0021558369262236836
-0.002021381830161196
-0.0018942728397752866
-0.0017742438266493755
-0.001661015492426801
-0.0015543000684001332
-0.0014538052553233962
-0.001359237494182047
-0.001270304651554415
-0.0011867181963082275
-0.0011081949374242047
-0.0010344583859900282
-0.0009652397971897412
-0.0009002789415415945
-0.0008393246477972381
-0.0007821351539018279
-0.0007284782973342136
-0.0006781315709067396
-0.0006308820669181893
-0.0005865263300555724
-0.0005448701361029948
-0.0005057282137510529
-0.00046892392669001427
-0.0004342889335554024
-0.0004016628449874536
-0.00037089289966832497
-0.00034183370151603763
-0.00031434703948833695
-0.0002883018634169245
-0.0002635745267765009
-0.00024004940465845257
-0.00021762015347502492
-0.00019619197860164323
-0.0001756854688580644
-0.00015604281466772484
-0.00013723749918565002
-0.00011928806791395373
-0.00010227336412578195
-8.633596706277306e-5
-7.162649597954241e-5
-5.805452230256088e-5
0.022875247040671235
0.021464249733754718
0.017130057372320703
0.011986941204679418
0.007226998391274279
0.003283319815153283
0.00019440937453901752
-0.00215209980602843
-0.0039012158213447296
-0.005185064837218148
-0.006110758219340924
-0.006761060294029059
-0.007198793387230851
-0.007471527933272654
-0.007615497331166244
-0.0076585820792146545
-0.007622495685430381
-0.007524359446224605
-0.007377832478898389
-0.007193924924678308
-0.006981588039578485
-0.006748147563979951
-0.006499626356062933
-0.00624098858659355
-0.005976327649902269
-0.005709013588572893
-0.0054418106428255585
-0.005176972624146289
-0.004916321455045166
-0.0046613126885239504
-0.004413090752025669
-0.004172535922782048
-0.003940304528207703
-0.003716863509366228
-0.0035025202327718242
-0.0032974482547409845
-0.003101709610391077
-0.0029152740977825254
-0.0027380359498965757
-0.0025698282253502997
-0.0024104351992487606
-0.0022596029959534667
-0.0021170486734417653
-0.001982467943270606
-0.0018555416895327317
-0.0017359414331730074
-0.001623333873881228
-0.0015173846292418282
-0.0014177612794513737
-0.001324135815126281
-0.0012361865752076532
-0.0011535997518463724
-0.001076070529525819
-0.001003303916206209
-0.0009350153159067045
-0.0008709308846062369
-0.0008107877050425624
-0.0007543338101455261
-0.0007013280839150731
-0.0006515400586971945
-0.0006047496323061089
-0.0005607467262872001
-0.000519330905609375
-0.0004803109815276087
-0.00044350460371989255
-0.00040873793346641945
-0.000375845340931312
-0.0003446692437965287
-0.00031506013530371976
-0.00028687688223699823
-0.00025998744675147104
-0.0002342701774241821
-0.0002096158083383221
-0.00018593021769916577
-0.00016313762803664485
-0.00014118210293241547
-0.00012002166566186777
-9.960174513351466e-5
-7.978070988880234e-5
-6.0168073615205075e-5
0.023570846682788284
0.02249871554057257
0.019077054676960834
0.01461046395626191
0.010074075011901044
0.0059896623907540365
0.0025505837584982576
-0.0002308491347871587
-0.0024220293877025272
-0.004114519199530095
-0.005398296032022011
-0.006352048542219979
-0.007041052576728383
-0.007518150443473746
-0.007825707015829412
-0.007997634899252468
-0.008061160338920778
-0.008038254183080632
-0.00794675227574064
-0.007801218750533304
-0.007613607338027837
-0.007393769417282634
-0.00714984661649014
-0.006888576993606387
-0.0066155366487977325
-0.0063353327226081555
-0.006051759565285631
-0.005767926650705735
-0.0054863645286326495
-0.005209113449487782
-0.004937798104280569
-0.004673691071385703
-0.004417766948751337
-0.004170748710065335
-0.0039331475068849035
-0.0037052969016057526
-0.0034873823363881723
-0.0032794665064339533
-0.0030815111961901512
-0.0028933960491889306
-0.002714934670117169
-0.0025458883997728286
-0.0023859780557633553
-0.0022348938932839485
-0.0020923040088993757
-0.001957861384785363
-0.0018312097494574456
-0.0017119884125914202
-0.0015998362152859532
-0.0014943947219528447
-0.0013953107661078456
-0.0013022384480948536
-0.0012148406707233807
-0.0011327902865579415
-0.0010557709196591686
-0.0009834775140091171
-0.000915616653712761
-0.000851906689414145
-0.0007920777168365943
-0.0007358714142556586
-0.0006830407772953584
-0.0006333497749443101
-0.0005865729462331511
-0.0005424949582357605
-0.0005009101496145098
-0.00046162208130265094
-0.00042444312321546327
-0.00038919412406780463
-0.00035570414042493484
-0.000323810324701774
-0.0002933579758512115
-0.0002642007188458785
-0.00023620068391859973
-0.00020922830785662149
-0.00018316097001817207
-0.00015787775382441923
-0.0001332458121692217
-0.00010909130740447833
-8.514588670078247e-5
-6.09676653189367e-5
0.023411126426813037
0.022579045553487723
0.019878594265926308
0.01611715633822037
0.0120259845859852
0.00809654087943062
0.0045891275554446635
0.0016015082093340247
-0.0008632748304565623
-0.0028487160329659935
-0.004415937441104575
-0.005628396128289077
-0.0065448200980838915
-0.007216621444691701
-0.007687525250699169
-0.00799416922178386
-0.008167038016126943
-0.0082314327158592
-0.008208350272838333
-0.008115234339878276
-0.007966596875566553
-0.0077745249424998565
-0.00754909210215204
-0.007298692337212582
-0.007030312344584482
-0.006749754768467505
-0.006461822739974029
-0.006170473507104143
-0.005878947262956399
-0.005589875865276449
-0.005305375077299665
-0.005027123160476763
-0.0047564280552553325
-0.004494284938810764
-0.004241425614033584
-0.003998360928411658
-0.003765417219513121
-0.0035427676249047396
-0.0033304589637156417
-0.003128434789385915
-0.002936555123805847
-0.0027546133083450434
-0.0025823503456146135
-0.0024194670552229887
-0.002265634325042407
-0.002120501705619993
-0.0019837045667790783
-0.0018548700111600716
-0.0017336217185214063
-0.0016195838750586505
-0.0015123843241739079
-0.001411657058404686
-0.0013170441560385257
-0.0012281972517749807
-0.0011447786171917037
-0.0010664619148635591
-0.0009929326806934517
-0.0009238885544923754
-0.0008590393742839741
-0.0007981070580975776
-0.0007408253737267685
-0.0006869396118346109
-0.0006362061769120375
-0.0005883921102099061
-0.0005432745946908088
-0.0005006403903374371
-0.00046028530797381957
-0.0004220136843657135
-0.0003856378380275042
-0.00035097752506298277
-0.00031785936221613413
-0.0002861160631480186
-0.0002555852244345833
-0.00022610731451652103
-0.000197521842457659
-0.0001696598421386036
-0.000142330010399761
-0.00011529618845033891
-8.824583302108196e-5
-6.075613891484027e-5
0.022688975377450907
0.02203071936440343
0.01988160065372335
0.016751675209995827
0.013170319068815668
0.00955326814366663
0.006168960209161635
0.003159454654241835
0.0005779067378822169
-0.0015769417846756015
-0.0033354756184461576
-0.004740936603711551
-0.005839934929767485
-0.006677425089228467
-0.007294375796094999
-0.007726953544558152
-0.008006495817161615
-0.008159856622946838
-0.008209895381097726
-0.00817599185785335
-0.00807453249348083
-0.007919344517119672
-0.007722074096615235
-0.00749250996418815
-0.007238859190381058
-0.006967981296790434
-0.006685587223527464
-0.006396408719654131
-0.006104342898229084
-0.0058125758909663644
-0.005523688840940175
-0.005239748895241589
-0.004962387399511101
-0.004692867131003695
-0.004432140114060695
-0.00418089732762694
-0.003939611422920651
-0.003708573408593705
-0.003487924123891926
-0.0032776812039045492
-0.0030777621406463513
-0.002888003957823859
-0.0027081799445299974
-0.0025380138329492022
-0.0023771917543380463
-0.0022253722663331693
-0.0020821947096953753
-0.0019472861232772045
-0.0018202669204985047
-0.0017007555073299328
-0.0015883720003849384
-0.0014827411846343786
-0.0013834948307839198
-0.0012902734757389062
-0.0012027277538281854
-0.0011205193527132004
-0.0010433216550954955
-0.000970820116423516
-0.0009027124208776972
-0.0008387084577711509
-0.0007785301181478757
-0.0007219110205417017
-0.0006685960968380555
-0.0006183410986820871
-0.0005709120474595174
-0.0005260846220475596
-0.0004836435056432988
-0.00044338168131846434
-0.0004050996507683911
-0.00036860454689820323
-0.00033370905833593305
-0.0003002300092144067
-0.0002679863246245529
-0.00023679616495010054
-0.00020647232054100343
-0.00017681475250434694
-0.00014759930299368453
-0.00011856262370733779
-8.93850157533859e-5
-5.967751030041949e-5
0.021583866265793842
0.021055025800070796
0.01932744849184181
0.016732104985488223
0.013648294069790186
0.010409554477762421
0.007261973384481426
0.004361439948211146
0.0017900543844720513
-0.00042256464416190486
-0.0022802790967307845
-0.0038060993354654933
-0.005032438515654999
-0.0059949879826215425
-0.006729141646544267
-0.007268085225331506
-0.007641912308023464
-0.007877341333113753
-0.007997764489879594
-0.008023464382415925
-0.007971904525432002
-0.00785803924243655
-0.007694616121031723
-0.007492456264934773
-0.007260707906452141
-0.007007071838358022
-0.006738000050746092
-0.006458869722021639
-0.006174135066748517
-0.005887459531776796
-0.005601830667753546
-0.005319659783184491
-0.005042868262677966
-0.0047729622185369
-0.0045110969536854735
-0.004258132542976631
-0.004014681685145236
-0.0037811508399876437
-0.00355777553813774
-0.0033446506374712596
-0.0031417561969365572
-0.0029489795482826155
-0.0027661340671531025
-0.0025929750779238184
-0.0024292132700415394
-0.002274525955889272
-0.0021285664614165228
-0.001990971906340445
-0.0018613696017411102
-0.0017393822671955893
-0.001624632244883592
-0.0015167448664039965
-0.0014153511070827335
-0.0013200896432107084
-0.0012306084102069227
-0.0011465657432693727
-0.0010676311674270896
-0.000993485917804427
-0.0009238231590491565
-0.0008583480534320207
-0.0007967776340080072
-0.0007388405073416344
-0.0006842765140686845
-0.0006328362095214836
-0.0005842802876344249
-0.0005383789219617879
-0.00049491102456674
-0.0004536634094338942
-0.00041442983138330493
-0.00037700985465183436
-0.0003412074575430395
-0.00030682923824188027
-0.000273682058696266
-0.0002415699934617622
-0.0002102899042951558
-0.00017962495856595112
-0.00014933635584246709
-0.00011915387387369882
-8.876690872666944e-5
-5.782026730628982e-5
0.020209931039162635
0.0197801855769883
0.018379243629663974
0.016227815708549927
0.013598193971862967
0.010750999722590464
0.007898153257862585
0.005190770386778734
0.002723139018194488
0.000543998929264378
-0.0013307460359573966
-0.0029068475895385726
-0.004203067242128384
-0.005245031789412321
-0.006061141949133274
-0.006680005838854969
-0.007128933062973405
-0.007433131538547866
-0.007615351437170731
-0.007695801090555633
-0.007692221801529338
-0.007620047959745742
-0.007492607458577101
-0.007321335712133499
-0.007115987119536731
-0.0068848354897330065
-0.006634859122149613
-0.006371908818106339
-0.006100858603742817
-0.005825739780936112
-0.005549859360771956
-0.005275904138569984
-0.005006031739326897
-0.0047419499549714
-0.0044849856432619024
-0.004236144383075455
-0.003996161988251144
-0.0037655488856411213
-0.003544628260561398
-0.003333568773235275
-0.003132412553279157
-0.002941099090646171
-0.002759485561429364
-0.002587364056640105
-0.0024244761225394964
-0.0022705249699786372
-0.002125185667305887
-0.001988113595382386
-0.0018589514104633347
-0.0017373347335876486
-0.0016228967582639002
-0.0015152719446201504
-0.001414098945889945
-0.0013190228920101404
-0.001229697136083401
-0.0011457845521499416
-0.0010669584575566423
-0.0009929032243616248
-0.0009233146163238649
-0.00085789990846297
-0.0007963778416761283
-0.000738478331629297
-0.0006839421753147799
-0.0006325205409780956
-0.0005839743846759054
-0.0005380737649038319
-0.0004945970500245413
-0.00045333000175673316
-0.00041406470391476704
-0.0003765982990674307
-0.0003407314285004663
-0.0003062662819242068
-0.00027300430866967904
-0.00024074331537085
-0.00020927362403156617
-0.00017837286824529027
-0.00014780007524745468
-0.00011728994575256206
-8.654839721393447e-5
-5.525140984028656e-5
0.018642597317267123
0.018290781993623977
0.0171476568760223
0.01536414012687919
0.013137153688366756
0.010667797682502292
0.008132101847699297
0.005666819529163976
0.0033670520629566743
0.0012909007964120858
-0.0005329203753484658
-0.002097135726400464
-0.003408955804200255
-0.004484588374746571
-0.005345199583790819
-0.006014103711439445
-0.006514905790278014
-0.006870341270563688
-0.007101604018350237
-0.007228004373269207
-0.007266842877276512
-0.007233419863297828
-0.007141126242513051
-0.007001579716203731
-0.00682478241400138
-0.006619285108903905
-0.006392348744817244
-0.006150097815224565
-0.005897662614158517
-0.005639308974644834
-0.005378555120860708
-0.005118275889243176
-0.004860794953120964
-0.004607965901566583
-0.0043612431300591005
-0.004121743537628668
-0.003890300010900287
-0.0036675076317216272
-0.003453763478425403
-0.003249300813878983
-0.003054218371159581
-0.002868505366729342
-0.0026920627950385925
-0.0025247214894788383
-0.0023662573746530196
-0.0022164042830327547
-0.002074864664200487
-0.0019413184780159177
-0.0018154305286781406
-0.0016968564677137575
-0.001585247666590479
-0.0014802551347559184
-0.0013815326355914783
-0.0012887391309154871
-0.0012015406644215495
-0.0011196117767960018
-0.0010426365290049115
-0.0009703091974441686
-0.0009023346904037133
-0.0008384287314429383
-0.0007783178426312659
-0.000721739164760012
-0.0006684401243670048
-0.0006181779780112961
-0.0005707192386020952
-0.0005258389885093967
-0.0004833200713257753
-0.00044295214653537475
-0.00040453057905884374
-0.00036785513144767343
-0.0003327283798478637
-0.0002989537900458674
-0.00026633362112289503
-0.0002346664304786825
-0.00020374381463957782
-0.00017334642132722677
-0.00014323976806123985
-0.00011317077621463277
-8.286557442128647e-5
-5.202954276497404e-5
0.016933475583451305
0.016644500068738174
0.01570905054247005
0.014232558669417795
0.01235870946705713