# vtk DataFile Version 3.0
jCFD simulation data
ASCII
DATASET UNSTRUCTURED_GRID
POINTS 8241 double
0.0 0.0 0.0
0.5 0.0 0.0
0.0 0.1 0.0
0.5 0.1 0.0
0.0025 0.0 0.0
0.005 0.0 0.0
0.0075 0.0 0.0
0.01 0.0 0.0
0.0125 0.0 0.0
0.015 0.0 0.0
0.0175 0.0 0.0
0.02 0.0 0.0
0.0225 0.0 0.0
0.025 0.0 0.0
0.0275 0.0 0.0
0.03 0.0 0.0
0.0325 0.0 0.0
0.035 0.0 0.0
0.0375 0.0 0.0
0.04 0.0 0.0
0.0425 0.0 0.0
0.045 0.0 0.0
0.0475 0.0 0.0
0.05 0.0 0.0
0.0525 0.0 0.0
0.055 0.0 0.0
0.0575 0.0 0.0
0.06 0.0 0.0
0.0625 0.0 0.0
0.065 0.0 0.0
0.0675 0.0 0.0
0.07 0.0 0.0
0.0725 0.0 0.0
0.075 0.0 0.0
0.0775 0.0 0.0
0.08 0.0 0.0
0.0825 0.0 0.0
0.085 0.0 0.0
0.08750000000000001 0.0 0.0
0.09 0.0 0.0
0.0925 0.0 0.0
0.095 0.0 0.0
0.0975 0.0 0.0
0.1 0.0 0.0
0.10250000000000001 0.0 0.0
0.105 0.0 0.0
0.1075 0.0 0.0
0.11 0.0 0.0
0.1125 0.0 0.0
0.115 0.0 0.0
0.11750000000000001 0.0 0.0
0.12 0.0 0.0
0.1225 0.0 0.0
0.125 0.0 0.0
0.1275 0.0 0.0
0.13 0.0 0.0
0.1325 0.0 0.0
0.135 0.0 0.0
0.1375 0.0 0.0
0.14 0.0 0.0
0.14250000000000002 0.0 0.0
0.145 0.0 0.0
0.1475 0.0 0.0
0.15 0.0 0.0
0.1525 0.0 0.0
0.155 0.0 0.0
0.1575 0.0 0.0
0.16 0.0 0.0
0.1625 0.0 0.0
0.165 0.0 0.0
0.1675 0.0 0.0
0.17 0.0 0.0
0.17250000000000001 0.0 0.0
0.17500000000000002 0.0 0.0
0.1775 0.0 0.0
0.18 0.0 0.0
0.1825 0.0 0.0
0.185 0.0 0.0
0.1875 0.0 0.0
0.19 0.0 0.0
0.1925 0.0 0.0
0.195 0.0 0.0
0.1975 0.0 0.0
0.2 0.0 0.0
0.2025 0.0 0.0
0.20500000000000002 0.0 0.0
0.20750000000000002 0.0 0.0
0.21 0.0 0.0
0.2125 0.0 0.0
0.215 0.0 0.0
0.2175 0.0 0.0
0.22 0.0 0.0
0.2225 0.0 0.0
0.225 0.0 0.0
0.2275 0.0 0.0
0.23 0.0 0.0
0.2325 0.0 0.0
0.23500000000000001 0.0 0.0
0.23750000000000002 0.0 0.0
0.24 0.0 0.0
0.2425 0.0 0.0
0.245 0.0 0.0
0.2475 0.0 0.0
0.25 0.0 0.0
0.2525 0.0 0.0
0.255 0.0 0.0
0.2575 0.0 0.0
0.26 0.0 0.0
0.2625 0.0 0.0
0.265 0.0 0.0
0.2675 0.0 0.0
0.27 0.0 0.0
0.2725 0.0 0.0
0.275 0.0 0.0
0.2775 0.0 0.0
0.28 0.0 0.0
0.28250000000000003 0.0 0.0
0.28500000000000003 0.0 0.0
0.28750000000000003 0.0 0.0
0.29 0.0 0.0
0.2925 0.0 0.0
0.295 0.0 0.0
0.2975 0.0 0.0
0.3 0.0 0.0
0.3025 0.0 0.0
0.305 0.0 0.0
0.3075 0.0 0.0
0.31 0.0 0.0
0.3125 0.0 0.0
0.315 0.0 0.0
0.3175 0.0 0.0
0.32 0.0 0.0
0.3225 0.0 0.0
0.325 0.0 0.0
0.3275 0.0 0.0
0.33 0.0 0.0
0.3325 0.0 0.0
0.335 0.0 0.0
0.3375 0.0 0.0
0.34 0.0 0.0
0.3425 0.0 0.0
0.34500000000000003 0.0 0.0
0.34750000000000003 0.0 0.0
0.35000000000000003 0.0 0.0
0.3525 0.0 0.0
0.355 0.0 0.0
0.3575 0.0 0.0
0.36 0.0 0.0
0.3625 0.0 0.0
0.365 0.0 0.0
0.3675 0.0 0.0
0.37 0.0 0.0
0.3725 0.0 0.0
0.375 0.0 0.0
0.3775 0.0 0.0
0.38 0.0 0.0
0.3825 0.0 0.0
0.385 0.0 0.0
0.3875 0.0 0.0
0.39 0.0 0.0
0.3925 0.0 0.0
0.395 0.0 0.0
0.3975 0.0 0.0
0.4 0.0 0.0
0.4025 0.0 0.0
0.405 0.0 0.0
0.40750000000000003 0.0 0.0
0.41000000000000003 0.0 0.0
0.41250000000000003 0.0 0.0
0.41500000000000004 0.0 0.0
0.4175 0.0 0.0
0.42 0.0 0.0
0.4225 0.0 0.0
0.425 0.0 0.0
0.4275 0.0 0.0
0.43 0.0 0.0
0.4325 0.0 0.0
0.435 0.0 0.0
0.4375 0.0 0.0
0.44 0.0 0.0
0.4425 0.0 0.0
0.445 0.0 0.0
0.4475 0.0 0.0
0.45 0.0 0.0
0.4525 0.0 0.0
0.455 0.0 0.0
0.4575 0.0 0.0
0.46 0.0 0.0
0.4625 0.0 0.0
0.465 0.0 0.0
0.4675 0.0 0.0
0.47000000000000003 0.0 0.0
0.47250000000000003 0.0 0.0
0.47500000000000003 0.0 0.0
0.47750000000000004 0.0 0.0
0.48 0.0 0.0
0.4825 0.0 0.0
0.485 0.0 0.0
0.4875 0.0 0.0
0.49 0.0 0.0
0.4925 0.0 0.0
0.495 0.0 0.0
0.4975 0.0 0.0
0.0025 0.1 0.0
0.005 0.1 0.0
0.0075 0.1 0.0
0.01 0.1 0.0
0.0125 0.1 0.0
0.015 0.1 0.0
0.0175 0.1 0.0
0.02 0.1 0.0
0.0225 0.1 0.0
0.025 0.1 0.0
0.0275 0.1 0.0
0.03 0.1 0.0
0.0325 0.1 0.0
0.035 0.1 0.0
0.0375 0.1 0.0
0.04 0.1 0.0
0.0425 0.1 0.0
0.045 0.1 0.0
0.0475 0.1 0.0
0.05 0.1 0.0
0.0525 0.1 0.0
0.055 0.1 0.0
0.0575 0.1 0.0
0.06 0.1 0.0
0.0625 0.1 0.0
0.065 0.1 0.0
0.0675 0.1 0.0
0.07 0.1 0.0
0.0725 0.1 0.0
0.075 0.1 0.0
0.0775 0.1 0.0
0.08 0.1 0.0
0.0825 0.1 0.0
0.085 0.1 0.0
0.08750000000000001 0.1 0.0
0.09 0.1 0.0
0.0925 0.1 0.0
0.095 0.1 0.0
0.0975 0.1 0.0
0.1 0.1 0.0
0.10250000000000001 0.1 0.0
0.105 0.1 0.0
0.1075 0.1 0.0
0.11 0.1 0.0
0.1125 0.1 0.0
0.115 0.1 0.0
0.11750000000000001 0.1 0.0
0.12 0.1 0.0
0.1225 0.1 0.0
0.125 0.1 0.0
0.1275 0.1 0.0
0.13 0.1 0.0
0.1325 0.1 0.0
0.135 0.1 0.0
0.1375 0.1 0.0
0.14 0.1 0.0
0.14250000000000002 0.1 0.0
0.145 0.1 0.0
0.1475 0.1 0.0
0.15 0.1 0.0
0.1525 0.1 0.0
0.155 0.1 0.0
0.1575 0.1 0.0
0.16 0.1 0.0
0.1625 0.1 0.0
0.165 0.1 0.0
0.1675 0.1 0.0
0.17 0.1 0.0
0.17250000000000001 0.1 0.0
0.17500000000000002 0.1 0.0
0.1775 0.1 0.0
0.18 0.1 0.0
0.1825 0.1 0.0
0.185 0.1 0.0
0.1875 0.1 0.0
0.19 0.1 0.0
0.1925 0.1 0.0
0.195 0.1 0.0
0.1975 0.1 0.0
0.2 0.1 0.0
0.2025 0.1 0.0
0.20500000000000002 0.1 0.0
0.20750000000000002 0.1 0.0
0.21 0.1 0.0
0.2125 0.1 0.0
0.215 0.1 0.0
0.2175 0.1 0.0
0.22 0.1 0.0
0.2225 0.1 0.0
0.225 0.1 0.0
0.2275 0.1 0.0
0.23 0.1 0.0
0.2325 0.1 0.0
0.23500000000000001 0.1 0.0
0.23750000000000002 0.1 0.0
0.24 0.1 0.0
0.2425 0.1 0.0
0.245 0.1 0.0
0.2475 0.1 0.0
0.25 0.1 0.0
0.2525 0.1 0.0
0.255 0.1 0.0
0.2575 0.1 0.0
0.26 0.1 0.0
0.2625 0.1 0.0
0.265 0.1 0.0
0.2675 0.1 0.0
0.27 0.1 0.0
0.2725 0.1 0.0
0.275 0.1 0.0
0.2775 0.1 0.0
0.28 0.1 0.0
0.28250000000000003 0.1 0.0
0.28500000000000003 0.1 0.0
0.28750000000000003 0.1 0.0
0.29 0.1 0.0
0.2925 0.1 0.0
0.295 0.1 0.0
0.2975 0.1 0.0
0.3 0.1 0.0
0.3025 0.1 0.0
0.305 0.1 0.0
0.3075 0.1 0.0
0.31 0.1 0.0
0.3125 0.1 0.0
0.315 0.1 0.0
0.3175 0.1 0.0
0.32 0.1 0.0
0.3225 0.1 0.0
0.325 0.1 0.0
0.3275 0.1 0.0
0.33 0.1 0.0
0.3325 0.1 0.0
0.335 0.1 0.0
0.3375 0.1 0.0
0.34 0.1 0.0
0.3425 0.1 0.0
0.34500000000000003 0.1 0.0
0.34750000000000003 0.1 0.0
0.35000000000000003 0.1 0.0
0.3525 0.1 0.0
0.355 0.1 0.0
0.3575 0.1 0.0
0.36 0.1 0.0
0.3625 0.1 0.0
0.365 0.1 0.0
0.3675 0.1 0.0
0.37 0.1 0.0
0.3725 0.1 0.0
0.375 0.1 0.0
0.3775 0.1 0.0
0.38 0.1 0.0
0.3825 0.1 0.0
0.385 0.1 0.0
0.3875 0.1 0.0
0.39 0.1 0.0
0.3925 0.1 0.0
0.395 0.1 0.0
0.3975 0.1 0.0
0.4 0.1 0.0
0.4025 0.1 0.0
0.405 0.1 0.0
0.40750000000000003 0.1 0.0
0.41000000000000003 0.1 0.0
0.41250000000000003 0.1 0.0
0.41500000000000004 0.1 0.0
0.4175 0.1 0.0
0.42 0.1 0.0
0.4225 0.1 0.0
0.425 0.1 0.0
0.4275 0.1 0.0
0.43 0.1 0.0
0.4325 0.1 0.0
0.435 0.1 0.0
0.4375 0.1 0.0
0.44 0.1 0.0
0.4425 0.1 0.0
0.445 0.1 0.0
0.4475 0.1 0.0
0.45 0.1 0.0
0.4525 0.1 0.0
0.455 0.1 0.0
0.4575 0.1 0.0
0.46 0.1 0.0
0.4625 0.1 0.0
0.465 0.1 0.0
0.4675 0.1 0.0
0.47000000000000003 0.1 0.0
0.47250000000000003 0.1 0.0
0.47500000000000003 0.1 0.0
0.47750000000000004 0.1 0.0
0.48 0.1 0.0
0.4825 0.1 0.0
0.485 0.1 0.0
0.4875 0.1 0.0
0.49 0.1 0.0
0.4925 0.1 0.0
0.495 0.1 0.0
0.4975 0.1 0.0
0.0 0.0025 0.0
0.0 0.005 0.0
0.0 0.0075 0.0
0.0 0.01 0.0
0.0 0.0125 0.0
0.0 0.015 0.0
0.0 0.0175 0.0
0.0 0.02 0.0
0.0 0.0225 0.0
0.0 0.025 0.0
0.0 0.0275 0.0
0.0 0.03 0.0
0.0 0.0325 0.0
0.0 0.035 0.0
0.0 0.0375 0.0
0.0 0.04 0.0
0.0 0.0425 0.0
0.0 0.045 0.0
0.0 0.0475 0.0
0.0 0.05 0.0
0.0 0.0525 0.0
0.0 0.055 0.0
0.0 0.0575 0.0
0.0 0.06 0.0
0.0 0.0625 0.0
0.0 0.065 0.0
0.0 0.0675 0.0
0.0 0.07 0.0
0.0 0.0725 0.0
0.0 0.075 0.0
0.0 0.0775 0.0
0.0 0.08 0.0
0.0 0.0825 0.0
0.0 0.085 0.0
0.0 0.08750000000000001 0.0
0.0 0.09 0.0
0.0 0.0925 0.0
0.0 0.095 0.0
0.0 0.0975 0.0
0.5 0.0025 0.0
0.5 0.005 0.0
0.5 0.0075 0.0
0.5 0.01 0.0
0.5 0.0125 0.0
0.5 0.015 0.0
0.5 0.0175 0.0
0.5 0.02 0.0
0.5 0.0225 0.0
0.5 0.025 0.0
0.5 0.0275 0.0
0.5 0.03 0.0
0.5 0.0325 0.0
0.5 0.035 0.0
0.5 0.0375 0.0
0.5 0.04 0.0
0.5 0.0425 0.0
0.5 0.045 0.0
0.5 0.0475 0.0
0.5 0.05 0.0
0.5 0.0525 0.0
0.5 0.055 0.0
0.5 0.0575 0.0
0.5 0.06 0.0
0.5 0.0625 0.0
0.5 0.065 0.0
0.5 0.0675 0.0
0.5 0.07 0.0
0.5 0.0725 0.0
0.5 0.075 0.0
0.5 0.0775 0.0
0.5 0.08 0.0
0.5 0.0825 0.0
0.5 0.085 0.0
0.5 0.08750000000000001 0.0
0.5 0.09 0.0
0.5 0.0925 0.0
0.5 0.095 0.0
0.5 0.0975 0.0
0.0025 0.0025 0.0
0.005 0.0025 0.0
0.0075 0.0025 0.0
0.01 0.0025 0.0
0.0125 0.0025 0.0
0.015 0.0025 0.0
0.0175 0.0025 0.0
0.02 0.0025 0.0
0.0225 0.0025 0.0
0.025 0.0025 0.0
0.0275 0.0025 0.0
0.03 0.0025 0.0
0.0325 0.0025 0.0
0.035 0.0025 0.0
0.0375 0.0025 0.0
0.04 0.0025 0.0
0.0425 0.0025 0.0
0.045 0.0025 0.0
0.0475 0.0025 0.0
0.05 0.0025 0.0
0.0525 0.0025 0.0
0.055 0.0025 0.0
0.0575 0.0025 0.0
0.06 0.0025 0.0
0.0625 0.0025 0.0
0.065 0.0025 0.0
0.0675 0.0025 0.0
0.07 0.0025 0.0
0.0725 0.0025 0.0
0.075 0.0025 0.0
0.0775 0.0025 0.0
0.08 0.0025 0.0
0.0825 0.0025 0.0
0.085 0.0025 0.0
0.08750000000000001 0.0025 0.0
0.09 0.0025 0.0
0.0925 0.0025 0.0
0.095 0.0025 0.0
0.0975 0.0025 0.0
0.1 0.0025 0.0
0.10250000000000001 0.0025 0.0
0.105 0.0025 0.0
0.1075 0.0025 0.0
0.11 0.0025 0.0
0.1125 0.0025 0.0
0.115 0.0025 0.0
0.11750000000000001 0.0025 0.0
0.12 0.0025 0.0
0.1225 0.0025 0.0
0.125 0.0025 0.0
0.1275 0.0025 0.0
0.13 0.0025 0.0
0.1325 0.0025 0.0
0.135 0.0025 0.0
0.1375 0.0025 0.0
0.14 0.0025 0.0
0.14250000000000002 0.0025 0.0
0.145 0.0025 0.0
0.1475 0.0025 0.0
0.15 0.0025 0.0
0.1525 0.0025 0.0
0.155 0.0025 0.0
0.1575 0.0025 0.0
0.16 0.0025 0.0
0.1625 0.0025 0.0
0.165 0.0025 0.0
0.1675 0.0025 0.0
0.17 0.0025 0.0
0.17250000000000001 0.0025 0.0
0.17500000000000002 0.0025 0.0
0.1775 0.0025 0.0
0.18 0.0025 0.0
0.1825 0.0025 0.0
0.185 0.0025 0.0
0.1875 0.0025 0.0
0.19 0.0025 0.0
0.1925 0.0025 0.0
0.195 0.0025 0.0
0.1975 0.0025 0.0
0.2 0.0025 0.0
0.2025 0.0025 0.0
0.20500000000000002 0.0025 0.0
0.20750000000000002 0.0025 0.0
0.21 0.0025 0.0
0.2125 0.0025 0.0
0.215 0.0025 0.0
0.2175 0.0025 0.0
0.22 0.0025 0.0
0.2225 0.0025 0.0
0.225 0.0025 0.0
0.2275 0.0025 0.0
0.23 0.0025 0.0
0.2325 0.0025 0.0
0.23500000000000001 0.0025 0.0
0.23750000000000002 0.0025 0.0
0.24 0.0025 0.0
0.2425 0.0025 0.0
0.245 0.0025 0.0
0.2475 0.0025 0.0
0.25 0.0025 0.0
0.2525 0.0025 0.0
0.255 0.0025 0.0
0.2575 0.0025 0.0
0.26 0.0025 0.0
0.2625 0.0025 0.0
0.265 0.0025 0.0
0.2675 0.0025 0.0
0.27 0.0025 0.0
0.2725 0.0025 0.0
0.275 0.0025 0.0
0.2775 0.0025 0.0
0.28 0.0025 0.0
0.28250000000000003 0.0025 0.0
0.28500000000000003 0.0025 0.0
0.28750000000000003 0.0025 0.0
0.29 0.0025 0.0
0.2925 0.0025 0.0
0.295 0.0025 0.0
0.2975 0.0025 0.0
0.3 0.0025 0.0
0.3025 0.0025 0.0
0.305 0.0025 0.0
0.3075 0.0025 0.0
0.31 0.0025 0.0
0.3125 0.0025 0.0
0.315 0.0025 0.0
0.3175 0.0025 0.0
0.32 0.0025 0.0
0.3225 0.0025 0.0
[...]
CELL_DATA 8000
SCALARS phi float 1
LOOKUP_TABLE CellColors
1.4805594437564842
1.1755208108573834
0.9928500384253132
0.8741553922338456
0.7977216648266211
0.7484796142256912
0.7155839856976611
0.6923115290714325
0.6747804125298649
0.6608068366464284
0.6491544614177814
0.6390994138158317
0.6301955087215139
0.6221516708541395
0.6147679914123579
0.6079014335695279
0.6014464948576473
0.5953236123189045
0.5894717792353155
0.583843602103481
0.578401864377484
0.5731170718681712
0.5679656638272275
0.5629286883705706
0.5579908083870669
0.5531395463374316
0.5483647040233125
0.543657912075206
0.5390122767419778
0.534422100502457
0.52988265930715
0.5253900237224798
0.5209409144495083
0.516532585004685
0.5121627260432667
0.5078293870571821
0.5035309121136379
0.49926588700633506
0.49503309572949983
0.49083148459989523
0.4866601326749664
0.48251822736901123
0.47840504437034104
0.4743199311230256
0.4702622932661025
0.46623158352789706
0.46222729265852985
0.45824894205374217
0.4542960777808926
0.45036826576576533
0.44646508793852413
0.44258613917024114
0.43873102485908555
0.4348993590484287
0.43109076297856425
0.42730486399007483
0.4235412947106197
0.41979969246846943
0.4160796988858421
0.41238095961327
0.40870312417310356
0.4050458458860259
0.4014087818592924
0.39779159301945816
0.39419394417573506
0.3906155041029366
0.38705594563530693
0.38351494576445994
0.37999218573625154
0.3764873511427092
0.37300013200620913
0.36953022285395026
0.3660773227814681
0.3626411355044775
0.3592213693987696
0.35581773752821866
0.3524299576612105
0.34905775227599156
0.3457008485555724
0.3423589783729081
0.33903187826713527
0.3357192894116728
0.33242095757499834
0.32913663307490254
0.32586607072699897
0.32260902978823514
0.3193652738961086
0.31613457100425124
0.31291669331499483
0.30971141720948453
0.3065185231758601
0.3033377957359758
0.3001690233710853
0.2970119984468736
0.29386651713817763
0.2907323793536974
0.2876093886609624
0.28449735221178707
0.28139608066841476
0.27830538813052486
0.275225092063248
0.27215501322631425
0.2690949756044371
0.26604480633901545
0.2630043356612221
0.25997339682652826
0.25695182605070577
0.25393946244732946
0.2509361479668008
0.2479417273368961
0.2449560480048428
0.2419789600809141
0.2390103162835314
0.23604997188585558
0.2330977846638475
0.2301536148457707
0.22721732506311088
0.2242887803028801
0.22136784786127603
0.21845439729866178
0.2155483003958321
0.21264943111153303
0.20975766554119646
0.20687288187685737
0.2039949603682153
0.20112378328480682
0.1982592348792511
0.1954012013515366
0.19254957081431043
0.18970423325914007
0.18686508052370945
0.18403200625992003
0.18120490590285954
0.17838367664061017
0.17556821738485923
0.17275842874228461
0.16995421298667893
0.1671554740317844
0.16436211740480333
0.16157405022055443
0.15879118115624177
0.1560134204268037
0.15324067976080924
0.15047287237686735
0.1477099129605155
0.14495171764154993
0.1421982039717636
0.13944929090305033
0.1367048987658383
0.1339649492478083
0.1312293653728552
0.128498071480244
0.1257709932039137
0.12304805745187321
0.12032919238563683
0.11761432739963486
0.11490339310053706
0.11219632128641474
0.10949304492566561
0.10679349813561269
0.10409761616068444
0.10140533535006638
0.09871659313470765
0.09603132800354403
0.09334947947878655
0.09067098809009824
0.08799579534745776
0.08532384371247646
0.08265507656789796
0.07998943818496451
0.07732687368827688
0.07466732901771286
0.072010750886887
0.06935708673752532
0.06670628468904861
0.06405829348240386
0.0614130624172414
0.058770541280776384
0.05613068026750718
0.053493429886255627
0.050858740855353524
0.048226563976356426
0.04559684999586329
0.042969549423743786
0.04034461235581372
0.03772198818517531
0.035101625408408534
0.032483471089921216
0.029867470803556704
0.027253567473312625
0.024641701928584083
0.02203181090430994
0.019423826030337293
0.01681768737199983
0.014213255466262256
0.011610735172172334
0.009008458524456819
0.0064140198995131905
0.0037753329324177764
0.0012146020575076709
1.2021039358137682
1.0727494902170063
0.963461393121132
0.8769606810955539
0.8127881402802637
0.7662673969261486
0.7321969082832277
0.7065671264805226
0.6866383288496343
0.6706083075061128
0.6572999448429622
0.6459378464357719
0.6360019853026019
0.6271354780184762
0.6190873226086313
0.6116767743510662
0.6047708764160636
0.5982699849410215
0.5920982119257184
0.5861969556597
0.5805204177003436
0.5750324306743956
0.5697041717431638
0.5645124872360807
0.559438646903507
0.5544674051365265
0.5495862847655255
0.5447850244522723
0.540055147863622
0.5353896246032945
0.5307826010775073
0.5262291852417236
0.5217252732842096
0.5172674092588398
0.5128526708305595
0.5084785758786126
0.5041430058781641
0.49984414286380535
0.4955804174483399
0.491350465883635
0.4871530945475518
0.4829872505511108
0.47885199740431184
0.47474649487295006
0.4706699823139077
0.4666217649013637
0.46260120225768814
0.4586076990854123
0.45464069746441005
0.4506996705342343
0.446784117327717
0.44289355856027757
0.439027533211318
0.43518559576076093
0.43136731396611633
0.42757226708419865
0.42380004445734887
0.42005024439724703
0.4163224733105338
0.4126163450198277
0.4089314802416113
0.40526750618909424
0.4016240562737353
0.39800076988379557
0.3943972922222187
0.39081327418942496
0.38724837229935627
0.38370224861939933
0.38017457072671784
0.3766650116751045
0.37317324996776596
0.3696989695325216
0.3662418596967758
0.3628016151603328
0.35937793596469786
0.3559705274579668
0.35257910025477507
0.3492033701910558
0.34584305827358397
0.34249789062444425
0.33916759842068656
0.33585191782951895
0.33255058993944653
0.3292633606877987
0.3259899807851072
0.32273020563679816
0.31948379526265547
0.31625051421449557
0.3130301314924726
0.3098224204604091
0.3066271587605147
0.30344412822783107
0.3002731148047054
0.29711390845556984
0.29396630308227023
0.2908300964401624
0.28770509005516576
0.2845910891419385
0.2814879025233155
0.2783953425511295
0.27531322502851163
0.2722413691337547
0.2691795973458029
0.266127735371415
0.2630856120740404
0.2600530594044281
0.2570299123329855
0.2540160087838883
0.25101118957094004
0.2480152983351677
0.24502818148414018
0.24204968813298325
0.23907967004706918
0.23611798158634661
0.23316447965128237
0.23021902363037566
0.22728147534921134
0.22435169902101
0.2214295611986383
0.21851493072803765
0.21560767870302905
0.21270767842145655
0.2098148053426241
0.20692893704598875
0.20404995319106575
0.2011777354785098
0.19831216761232792
0.19545313526318944
0.19260052603279174
0.18975422941924563
0.1869141367834417
0.18408014131636355
0.18125213800730905
0.17843002361298774
0.17561369662745602
0.17280305725285927
0.16999800737094334
0.1671984505153052
0.16440429184434552
0.1616154381148923
0.1588317976564598
0.15605328034610946
0.15327979758387802
0.1505112622687372
0.1477475887750499
0.14498869292948383
0.1422344919883473
0.13948490461530447
0.1367398508594308
0.1339992521335645
0.13126303119290855
0.12853111211383483
0.12580342027284058
0.12307988232559987
0.12036042618605425
0.11764498100547659
0.11493347715144177
0.11222584618662619
0.10952202084735614
0.10682193502181109
0.10412552372778287
0.10143272308987361
0.09874347031600768
0.09605770367310862
0.09337536246177876
0.09069638698978814
0.08802071854415627
0.08534829936157015
0.08267907259684408
0.0800129822890738
0.07734997332507487
0.0746899913996227
0.07203298297192402
0.06937889521761068
0.06672767597548714
0.06407927368789346
0.061433637333778414
0.058790716352325086
0.05615046055670698
0.05351282003277132
0.05087774502581486
0.04824518579963744
0.045615092488090564
0.04298741488338244
0.04036210225393255
0.03773910298118708
0.03511836440289362
0.032499832053459084
0.029883449825832818
0.02726915807546995
0.024656894945983613
0.02204659239950522
0.01943817538208266
0.01683158050400548
0.014226627995486893
0.01162365005457008
0.009020602216612009
0.006426307313328069
0.003792357141734352
0.001221403154938903
1.0512565507176073
0.9953459677563565
0.9294468735709314
0.8663877157135443
0.8136873460874661
0.7720178751890733
0.7395161289619617
0.7139760352740623
0.6935409324808967
0.6768143979259222
0.6627949180664066
0.650776257175818
0.6402598971970694
0.6308900753798784
0.6224089886360296
0.614626747316207
0.6074012819446797
0.6006247713955881
0.5942143299143394
0.5881055039325811
0.5822476533076999
0.5766006195015365
0.5711322880973014
0.5658167826577001
0.5606331105012171
0.5555641360116786
0.5505957940619527
0.5457164813814589
0.5409165811827503
0.5361880886100289
0.5315243132347248
0.5269196410038492
0.5223693424940842
0.5178694175518229
0.5134164687617138
0.50900759793102
0.5046403210776144
0.5003124983878678
0.4960222763537154
0.49176803986767215
0.48754837249499133
0.4833620234857501
0.4792078803599236
0.4750849461127995
0.4709923202592419
0.4669291830729608
0.46289478248835536
0.4588884232231952
0.4549094577546362
0.45095727884212095
0.447031313341136
0.44313101709361624
0.43925587071556843
0.43540537613152186
0.4315790537296906
0.4277764400320951
0.423997085790984
0.42024055443727326
0.41650642081882
0.41279427017654197
0.4091036973149806
0.40543430593114355
0.40178570807155733
0.3981575236925938
0.3945493803034554
0.3909609126748274
0.38739176259925373
0.38384157869184343
0.3803100162220465
0.37679673696901655
0.3733014090945583
0.36982370702888284
0.36636331136541
0.3629199087616891
0.35949319184419337
0.3560828591153002
0.3526886148612213
0.3493101690600048
0.34594723728902516
0.34259954063160036
0.3392668055825531
0.3359487639526699
0.3326451527721127
0.32935571419290816
0.3260801953906975
0.32281834846595797
0.3195699303449288
0.316334702680483
0.3131124317531865
0.3099028883727779
0.3067058477802936
0.3035210895510461
0.3003483974986478
0.29718755958025433
0.2940383678031828
0.2909006181330413
0.2877741104034866
0.2846586482277124
0.2815540389117491
0.2784600933696441
0.2753766260405748
0.2723034548079319
0.26924040092040363
0.26618728891507093
0.2631439465425252
0.26011020469399854
0.2570858973305033
0.2540708614139545
0.2510649368402585
0.24806796637433334
0.24507979558703183
0.2421002727939271
0.23912924899592347
0.2361665778216476
0.2332121154715798
0.23026572066387577
0.22732725458183572
0.22439658082297154
0.22147356534962634
0.21855807644109757
0.21564998464721644
0.21274916274333816
0.20985548568669374
0.2069688305740607
0.20408907660070422
0.2012161050205476
0.19834979910752484
0.19549004411807736
0.19263672725474756
0.18978973763083462
0.18694896623606672
0.18411430590325503
0.18128565127588875
0.17846289877663546
0.17564594657670748
0.17283469456606163
0.17002904432439256
0.167228899092888
0.1644341637467076
0.16164474476815355
0.15886055022049458
0.15608148972241123
0.15330747442302453
0.15053841697747378
0.1477742315230055
0.14501483365553602
0.14226014040665053
0.13951007022099546
0.13676454293402612
0.1340234797500627
0.131286803220611
0.12855443722289783
0.12582630693857194
0.12310233883251151
0.12038246063168374
0.11766660130398848
0.11495469103701977
0.11224666121666607
0.10954244440546879
0.10684197432064324
0.10414518581166204
0.10145201483728171
0.0987623984418854
0.09607627473099052
0.09339358284575461
0.09071426293628417
0.08803825613352273
0.08536550451945962
0.08269595109535495
0.0800295397476302
0.07736621521100218
0.07470592302836976
0.07204860950687793
0.06939422166941224
0.06674270720081034
0.0640940143874673
0.06144809204979212
0.058804889464506356
0.05616435627810166
0.053526442402550396
0.050891097903975176
0.0482582728529629
0.04562791718806881
0.042999980473292745
0.040374411769846144
0.03775115915491921
0.03513016978779892
0.03251138868857504
0.029894759781345114
0.02728022224308126
0.024667715065328017
0.022057167257613464
0.01944850619316146
0.016841666380717
0.014236461143868085
0.01163326113167115
0.009030111245930544
0.006434392067218906
0.0038151857659329486
0.0012330494695597552
0.9571673305215692
0.9322406350085339
0.8929764187345254
0.8490453755297377
0.8082645916521505
0.7732242986656626
0.7439934817643172
0.719788896042799
0.6996589743836621
0.6827331709435652
0.6682955156908598
0.6557862666379387
0.6447778939667627
0.6349463908397514
0.6260459877526248
0.617889240658617
0.6103321018608089
0.6032629471149018
0.5965945496205375
0.5902581923007512
0.5841993200338537
0.5783743032047589
0.5727480084493772
0.5672919603901769
0.5619829395755779
0.5568019048533551
0.5517331588044564
0.5467636965597654
0.5418826939505834
0.5370811022847394
0.5323513253186168
0.5276869600675299
0.5230825875706309
0.5185336030376518
0.5140360772676268
0.5095866430718454
0.5051824018196891
0.500820846276536
0.4964997967047577
0.4922173478155052
0.48797182463693806
0.48376174573787006
0.47958579253962774
0.4754427836818774
0.4713316535941897
0.4672514345746199
0.4632012417975067
0.45918026077105534
0.4551877368457073
0.45122296644039717
0.4472852897083459
0.44337408440923837
0.4394887607922102
0.43562875732541817
0.431793537134172
0.42798258503158815
0.42419540504416847
0.42043151835024295
0.41669046156228257
0.4129717852951248
0.4092750529714495
0.4055998398237053
0.40194573205831274
0.39831232615357176
0.39469922826742376
0.3911060537352055
0.3875324266408889
0.3839779794481293
0.3804423526798215
0.3769251946368582
0.373426161148459
0.3699449153478347
0.36648112746812095
0.36303447465448346
0.3596046407891057
0.3561913163264309
0.35279419813658414
0.3494129893553479
0.3460473992394277
0.342697143026049
0.33936194179616064
0.33604152234071466
0.33273561702964427
0.32944396368327994
0.32616630544603614
0.32290239066227294
0.31965197275428536
0.3164148101024157
0.3131906659273056
0.3099793081743246
0.3067805094002214
0.30359404666204515
0.3004197014083906
0.29725725937300884
0.29410651047082975
0.29096724869642626
0.28783927202495063
0.28472238231555835
0.28161638521733173
0.2785210900777038
0.2754363098533761
0.27236186102371657
0.2692975635066188
0.2662432405767908
0.26319871878644663
0.2601638278883568
0.2571384007612211
0.25412227333731197
0.251115284532345
0.2481172761775187
0.24512809295367596
0.24214758232752565
0.23917559448987263
0.23621198229579432
0.23325660120671055
0.23030930923428325
0.2273699668860936
0.22443843711303457
0.22151458525836443
0.21859827900836512
0.21568938834454768
0.21278778549735458
0.2098933449013015
0.2070059431515103
0.20412545896157966
0.20125177312274586
0.19838476846428404
0.19552432981510512
0.19267034396649937
0.1898226996359873
0.18698128743222836
0.18414599982095192
0.18131673109186375
0.178493377326493
0.1756758363669362
0.17286400778546385
0.17005779285494838
0.16725709452008036
0.16446181736933216
0.1616718676076366
0.15888715302974193
0.15610758299420824
0.1533330683980084
0.15056352165169767
0.1477988566551144
0.1450389887735728
0.14228383481451212
0.1395333130045583
0.13678734296695969
0.13404584569935182
0.1313087435518069
0.12857596020511894
0.1258474206492763
0.12312305116206433
0.12040277928774334
0.11768653381573617
0.11497424475926048
0.11226584333382827
0.10956126193553427
0.10686043411903848
0.10416329457514692
0.10146977910787304
0.09877982461085628
0.0960933690429914
0.09341035140310484
0.09073071170349152
0.08805439094209201
0.08538133107306543
0.08271147497545901
0.08004476641964653
0.07738115003112399
0.07472057125120347
0.07206297629406873
0.06940831209944906
0.06675652628038581
0.06410756706451583
0.06146138322921295
0.05881792402599806
0.05617713909944176
0.053538978384120264
0.0509033920068768
0.04827033013041209
0.04563974285799408
0.04301157994423903
0.04038579080978344
0.03776232383827009
0.03514112697688447
0.03252214556369555
0.02990532544310788
0.02729060540085247
0.024677929851616466
0.02206722329048007
0.01945843078651934
0.01685146062444492
0.014246203986089669
0.011642804889770902
0.009040118203809771
0.0064419572785840064
0.0038342028672964474
0.0012428095632790587
0.8963693464058028
0.8843335830127739
0.8603969946099557
0.8300323250067716
0.7991985142228751
0.770693216809148
0.7454096118438717
0.7233872281025562
0.7043174100018685
0.6877776446080719
0.6733422616929668
0.6606301184876381
0.6493193764757468
0.6391465883915117
0.6298995543659344
0.6214086214543795
0.6135384575682047
0.6061810129169101
0.5992497828852807
0.5926752468320187
0.5864012863233534
0.5803823872240634
0.574581456651462
0.5689681176330217
0.5635173734794826
0.5582085580976102
0.553024507687933
0.5479509042164967
0.5429757525563801
0.5380889620162811
0.533282009722838
0.5285476684821206
0.5238797856872015
0.5192731028505767
0.5147231076435762
0.5102259120892971
0.5057781519104826
0.5013769030776905
0.49701961241081544
0.49270403971503773
0.4884282094232568
0.48419037010315963
0.4799889604925638
0.4758225809698747
0.4716899695613022
0.4675899817434506
0.4635215734271035
0.4594837866116658
0.45547573728459073
0.4514966052099331
0.4475456253078488
0.44362208037469314
0.43972529493318263
0.4358546300353172
0.4320094788685863
0.42818926303933064
0.4243934294267683
0.42062144751774133
0.41687280714619657
0.4131470165732145
0.40944360085337234
0.40576210044167355
0.4021020700024286
0.3984630773875248
0.3948447027566582
0.39124653781644775
0.387668185159034
0.384109257683878
0.38056937808911795
0.3770481784210643
0.3735452996723001
0.3700603914204351
0.3665931115009059
0.3631431257083299
0.359710107521873
0.3562937378508731
0.35289370479762994
0.34950970343481935
0.34614143559544697
0.3427886096736418
0.33945094043490054
0.33612814883465536
0.33281996184424795
0.32952611228356954
0.3262463386597674
0.32298038501153076
0.31972800075856384
0.31648894055592686
0.31326296415298277
0.3100498362567357
0.3068493263993809
0.30366120880991476
0.3004852622896741
0.297321270091691
0.29416901980375726
0.29102830323510426
0.2878989163066099
0.2847806589444452
0.2816733349770779
0.2785767520355516
0.2754907214569574
0.2724150581910195
0.26934958070971243
0.26629411091982685
0.26324847407840674
0.26021249871097063
0.2571860165324419
0.2541688623707002
0.251160874092678
0.24816189253291793
0.2451717614245148
0.24219032733235904
0.2392174395886086
0.23625295023030762
0.23329671393908194
0.23034858798283234
0.22740843215935827
0.22447610874183815
0.22155148242609984
0.2186344202796139
0.215724791692143
0.21282246832798782
0.20992732407976505
0.20703923502366062
0.20415807937609884
0.20128373745177414
0.19841609162298854
0.19555502628024704
0.19270042779405655
0.18985218447788324
0.18701018655221832
0.1841743261097091
0.18134449708130934
0.1785205952034079
0.1757025179858913
0.17289016468110305
0.1700834362536565
0.16728223535106576
0.16448646627515318
0.16169603495419899
0.15891084891579332
0.15613081726035508
0.15335585063528082
0.15058586120968556
0.1478207626496994
0.14506047009428064
0.14230490013151006
0.13955397077532236
0.1368076014426386
0.13406571293085454
0.1313282273956428
0.12859506832902115
0.1258661605376416
0.12314143012124387
0.12042080445122433
0.11770421214925524
0.1149915830658951
0.11228284825911818
0.10957793997268742
0.10687679161428681
0.10417933773332073
0.1014855139982749
0.09879525717352361
0.09610850509545252
0.09342519664774465
0.0907452717356669
0.08806867125915227
0.08539533708447218
0.08272521201421795
0.08005823975533033
0.07739436488479141
0.07473353281261855
0.07207568974169877
0.06942078262379654
0.06676875911154706
0.06411956750451023
0.06147315669124744
0.05882947608005288
0.056188475530901665
0.05355010525813716
0.05091431576271739
0.048281057667786974
0.04565028170877255
0.043021938361333764
0.04039597814234742
0.03777235048794016
0.035151005412971406
0.032531889490980265
0.029914953114319937
0.027300135055522937
0.02468739211270312
0.02207663939752867
0.01946786519561916
0.016860911179668245
0.014255874006140788
0.011652412833938407
0.009050829128276242
0.006450673349365567
0.003852009414009913
0.0012525829144572342
0.8545425218221138
0.8479753044230013
0.8327183595071463
0.8114712476712077
0.7882630563364891
0.7654515086286982
0.7441282148635315
0.7247028370900508
0.7072324173147674
0.691597668004668
0.6776026949568326
0.6650307831311261
0.6536732271716048
0.6433422464090781
0.6338751471654368
0.6251340471165177
0.6170035970135646
0.6093880025469938
0.6022080013182589
0.5953980926329511