# vtk DataFile Version 3.0
jCFD simulation data
ASCII
DATASET UNSTRUCTURED_GRID
POINTS 8241 double
0.0 0.0 0.0
0.5 0.0 0.0
0.0 0.1 0.0
0.5 0.1 0.0
0.0025 0.0 0.0
0.005 0.0 0.0
0.0075 0.0 0.0
0.01 0.0 0.0
0.0125 0.0 0.0
0.015 0.0 0.0
0.0175 0.0 0.0
0.02 0.0 0.0
0.0225 0.0 0.0
0.025 0.0 0.0
0.0275 0.0 0.0
0.03 0.0 0.0
0.0325 0.0 0.0
0.035 0.0 0.0
0.0375 0.0 0.0
0.04 0.0 0.0
0.0425 0.0 0.0
0.045 0.0 0.0
0.0475 0.0 0.0
0.05 0.0 0.0
0.0525 0.0 0.0
0.055 0.0 0.0
0.0575 0.0 0.0
0.06 0.0 0.0
0.0625 0.0 0.0
0.065 0.0 0.0
0.0675 0.0 0.0
0.07 0.0 0.0
0.0725 0.0 0.0
0.075 0.0 0.0
0.0775 0.0 0.0
0.08 0.0 0.0
0.0825 0.0 0.0
0.085 0.0 0.0
0.08750000000000001 0.0 0.0
0.09 0.0 0.0
0.0925 0.0 0.0
0.095 0.0 0.0
0.0975 0.0 0.0
0.1 0.0 0.0
0.10250000000000001 0.0 0.0
0.105 0.0 0.0
0.1075 0.0 0.0
0.11 0.0 0.0
0.1125 0.0 0.0
0.115 0.0 0.0
0.11750000000000001 0.0 0.0
0.12 0.0 0.0
0.1225 0.0 0.0
0.125 0.0 0.0
0.1275 0.0 0.0
0.13 0.0 0.0
0.1325 0.0 0.0
0.135 0.0 0.0
0.1375 0.0 0.0
0.14 0.0 0.0
0.14250000000000002 0.0 0.0
0.145 0.0 0.0
0.1475 0.0 0.0
0.15 0.0 0.0
0.1525 0.0 0.0
0.155 0.0 0.0
0.1575 0.0 0.0
0.16 0.0 0.0
0.1625 0.0 0.0
0.165 0.0 0.0
0.1675 0.0 0.0
0.17 0.0 0.0
0.17250000000000001 0.0 0.0
0.17500000000000002 0.0 0.0
0.1775 0.0 0.0
0.18 0.0 0.0
0.1825 0.0 0.0
0.185 0.0 0.0
0.1875 0.0 0.0
0.19 0.0 0.0
0.1925 0.0 0.0
0.195 0.0 0.0
0.1975 0.0 0.0
0.2 0.0 0.0
0.2025 0.0 0.0
0.20500000000000002 0.0 0.0
0.20750000000000002 0.0 0.0
0.21 0.0 0.0
0.2125 0.0 0.0
0.215 0.0 0.0
0.2175 0.0 0.0
0.22 0.0 0.0
0.2225 0.0 0.0
0.225 0.0 0.0
0.2275 0.0 0.0
0.23 0.0 0.0
0.2325 0.0 0.0
0.23500000000000001 0.0 0.0
0.23750000000000002 0.0 0.0
0.24 0.0 0.0
0.2425 0.0 0.0
0.245 0.0 0.0
0.2475 0.0 0.0
0.25 0.0 0.0
0.2525 0.0 0.0
0.255 0.0 0.0
0.2575 0.0 0.0
0.26 0.0 0.0
0.2625 0.0 0.0
0.265 0.0 0.0
0.2675 0.0 0.0
0.27 0.0 0.0
0.2725 0.0 0.0
0.275 0.0 0.0
0.2775 0.0 0.0
0.28 0.0 0.0
0.28250000000000003 0.0 0.0
0.28500000000000003 0.0 0.0
0.28750000000000003 0.0 0.0
0.29 0.0 0.0
0.2925 0.0 0.0
0.295 0.0 0.0
0.2975 0.0 0.0
0.3 0.0 0.0
0.3025 0.0 0.0
0.305 0.0 0.0
0.3075 0.0 0.0
0.31 0.0 0.0
0.3125 0.0 0.0
0.315 0.0 0.0
0.3175 0.0 0.0
0.32 0.0 0.0
0.3225 0.0 0.0
0.325 0.0 0.0
0.3275 0.0 0.0
0.33 0.0 0.0
0.3325 0.0 0.0
0.335 0.0 0.0
0.3375 0.0 0.0
0.34 0.0 0.0
0.3425 0.0 0.0
0.34500000000000003 0.0 0.0
0.34750000000000003 0.0 0.0
0.35000000000000003 0.0 0.0
0.3525 0.0 0.0
0.355 0.0 0.0
0.3575 0.0 0.0
0.36 0.0 0.0
0.3625 0.0 0.0
0.365 0.0 0.0
0.3675 0.0 0.0
0.37 0.0 0.0
0.3725 0.0 0.0
0.375 0.0 0.0
0.3775 0.0 0.0
0.38 0.0 0.0
0.3825 0.0 0.0
0.385 0.0 0.0
0.3875 0.0 0.0
0.39 0.0 0.0
0.3925 0.0 0.0
0.395 0.0 0.0
0.3975 0.0 0.0
0.4 0.0 0.0
0.4025 0.0 0.0
0.405 0.0 0.0
0.40750000000000003 0.0 0.0
0.41000000000000003 0.0 0.0
0.41250000000000003 0.0 0.0
0.41500000000000004 0.0 0.0
0.4175 0.0 0.0
0.42 0.0 0.0
0.4225 0.0 0.0
0.425 0.0 0.0
0.4275 0.0 0.0
0.43 0.0 0.0
0.4325 0.0 0.0
0.435 0.0 0.0
0.4375 0.0 0.0
0.44 0.0 0.0
0.4425 0.0 0.0
0.445 0.0 0.0
0.4475 0.0 0.0
0.45 0.0 0.0
0.4525 0.0 0.0
0.455 0.0 0.0
0.4575 0.0 0.0
0.46 0.0 0.0
0.4625 0.0 0.0
0.465 0.0 0.0
0.4675 0.0 0.0
0.47000000000000003 0.0 0.0
0.47250000000000003 0.0 0.0
0.47500000000000003 0.0 0.0
0.47750000000000004 0.0 0.0
0.48 0.0 0.0
0.4825 0.0 0.0
0.485 0.0 0.0
0.4875 0.0 0.0
0.49 0.0 0.0
0.4925 0.0 0.0
0.495 0.0 0.0
0.4975 0.0 0.0
0.0025 0.1 0.0
0.005 0.1 0.0
0.0075 0.1 0.0
0.01 0.1 0.0
0.0125 0.1 0.0
0.015 0.1 0.0
0.0175 0.1 0.0
0.02 0.1 0.0
0.0225 0.1 0.0
0.025 0.1 0.0
0.0275 0.1 0.0
0.03 0.1 0.0
0.0325 0.1 0.0
0.035 0.1 0.0
0.0375 0.1 0.0
0.04 0.1 0.0
0.0425 0.1 0.0
0.045 0.1 0.0
0.0475 0.1 0.0
0.05 0.1 0.0
0.0525 0.1 0.0
0.055 0.1 0.0
0.0575 0.1 0.0
0.06 0.1 0.0
0.0625 0.1 0.0
0.065 0.1 0.0
0.0675 0.1 0.0
0.07 0.1 0.0
0.0725 0.1 0.0
0.075 0.1 0.0
0.0775 0.1 0.0
0.08 0.1 0.0
0.0825 0.1 0.0
0.085 0.1 0.0
0.08750000000000001 0.1 0.0
0.09 0.1 0.0
0.0925 0.1 0.0
0.095 0.1 0.0
0.0975 0.1 0.0
0.1 0.1 0.0
0.10250000000000001 0.1 0.0
0.105 0.1 0.0
0.1075 0.1 0.0
0.11 0.1 0.0
0.1125 0.1 0.0
0.115 0.1 0.0
0.11750000000000001 0.1 0.0
0.12 0.1 0.0
0.1225 0.1 0.0
0.125 0.1 0.0
0.1275 0.1 0.0
0.13 0.1 0.0
0.1325 0.1 0.0
0.135 0.1 0.0
0.1375 0.1 0.0
0.14 0.1 0.0
0.14250000000000002 0.1 0.0
0.145 0.1 0.0
0.1475 0.1 0.0
0.15 0.1 0.0
0.1525 0.1 0.0
0.155 0.1 0.0
0.1575 0.1 0.0
0.16 0.1 0.0
0.1625 0.1 0.0
0.165 0.1 0.0
0.1675 0.1 0.0
0.17 0.1 0.0
0.17250000000000001 0.1 0.0
0.17500000000000002 0.1 0.0
0.1775 0.1 0.0
0.18 0.1 0.0
0.1825 0.1 0.0
0.185 0.1 0.0
0.1875 0.1 0.0
0.19 0.1 0.0
0.1925 0.1 0.0
0.195 0.1 0.0
0.1975 0.1 0.0
0.2 0.1 0.0
0.2025 0.1 0.0
0.20500000000000002 0.1 0.0
0.20750000000000002 0.1 0.0
0.21 0.1 0.0
0.2125 0.1 0.0
0.215 0.1 0.0
0.2175 0.1 0.0
0.22 0.1 0.0
0.2225 0.1 0.0
0.225 0.1 0.0
0.2275 0.1 0.0
0.23 0.1 0.0
0.2325 0.1 0.0
0.23500000000000001 0.1 0.0
0.23750000000000002 0.1 0.0
0.24 0.1 0.0
0.2425 0.1 0.0
0.245 0.1 0.0
0.2475 0.1 0.0
0.25 0.1 0.0
0.2525 0.1 0.0
0.255 0.1 0.0
0.2575 0.1 0.0
0.26 0.1 0.0
0.2625 0.1 0.0
0.265 0.1 0.0
0.2675 0.1 0.0
0.27 0.1 0.0
0.2725 0.1 0.0
0.275 0.1 0.0
0.2775 0.1 0.0
0.28 0.1 0.0
0.28250000000000003 0.1 0.0
0.28500000000000003 0.1 0.0
0.28750000000000003 0.1 0.0
0.29 0.1 0.0
0.2925 0.1 0.0
0.295 0.1 0.0
0.2975 0.1 0.0
0.3 0.1 0.0
0.3025 0.1 0.0
0.305 0.1 0.0
0.3075 0.1 0.0
0.31 0.1 0.0
0.3125 0.1 0.0
0.315 0.1 0.0
0.3175 0.1 0.0
0.32 0.1 0.0
0.3225 0.1 0.0
0.325 0.1 0.0
0.3275 0.1 0.0
0.33 0.1 0.0
0.3325 0.1 0.0
0.335 0.1 0.0
0.3375 0.1 0.0
0.34 0.1 0.0
0.3425 0.1 0.0
0.34500000000000003 0.1 0.0
0.34750000000000003 0.1 0.0
0.35000000000000003 0.1 0.0
0.3525 0.1 0.0
0.355 0.1 0.0
0.3575 0.1 0.0
0.36 0.1 0.0
0.3625 0.1 0.0
0.365 0.1 0.0
0.3675 0.1 0.0
0.37 0.1 0.0
0.3725 0.1 0.0
0.375 0.1 0.0
0.3775 0.1 0.0
0.38 0.1 0.0
0.3825 0.1 0.0
0.385 0.1 0.0
0.3875 0.1 0.0
0.39 0.1 0.0
0.3925 0.1 0.0
0.395 0.1 0.0
0.3975 0.1 0.0
0.4 0.1 0.0
0.4025 0.1 0.0
0.405 0.1 0.0
0.40750000000000003 0.1 0.0
0.41000000000000003 0.1 0.0
0.41250000000000003 0.1 0.0
0.41500000000000004 0.1 0.0
0.4175 0.1 0.0
0.42 0.1 0.0
0.4225 0.1 0.0
0.425 0.1 0.0
0.4275 0.1 0.0
0.43 0.1 0.0
0.4325 0.1 0.0
0.435 0.1 0.0
0.4375 0.1 0.0
0.44 0.1 0.0
0.4425 0.1 0.0
0.445 0.1 0.0
0.4475 0.1 0.0
0.45 0.1 0.0
0.4525 0.1 0.0
0.455 0.1 0.0
0.4575 0.1 0.0
0.46 0.1 0.0
0.4625 0.1 0.0
0.465 0.1 0.0
0.4675 0.1 0.0
0.47000000000000003 0.1 0.0
0.47250000000000003 0.1 0.0
0.47500000000000003 0.1 0.0
0.47750000000000004 0.1 0.0
0.48 0.1 0.0
0.4825 0.1 0.0
0.485 0.1 0.0
0.4875 0.1 0.0
0.49 0.1 0.0
0.4925 0.1 0.0
0.495 0.1 0.0
0.4975 0.1 0.0
0.0 0.0025 0.0
0.0 0.005 0.0
0.0 0.0075 0.0
0.0 0.01 0.0
0.0 0.0125 0.0
0.0 0.015 0.0
0.0 0.0175 0.0
0.0 0.02 0.0
0.0 0.0225 0.0
0.0 0.025 0.0
0.0 0.0275 0.0
0.0 0.03 0.0
0.0 0.0325 0.0
0.0 0.035 0.0
0.0 0.0375 0.0
0.0 0.04 0.0
0.0 0.0425 0.0
0.0 0.045 0.0
0.0 0.0475 0.0
0.0 0.05 0.0
0.0 0.0525 0.0
0.0 0.055 0.0
0.0 0.0575 0.0
0.0 0.06 0.0
0.0 0.0625 0.0
0.0 0.065 0.0
0.0 0.0675 0.0
0.0 0.07 0.0
0.0 0.0725 0.0
0.0 0.075 0.0
0.0 0.0775 0.0
0.0 0.08 0.0
0.0 0.0825 0.0
0.0 0.085 0.0
0.0 0.08750000000000001 0.0
0.0 0.09 0.0
0.0 0.0925 0.0
0.0 0.095 0.0
0.0 0.0975 0.0
0.5 0.0025 0.0
0.5 0.005 0.0
0.5 0.0075 0.0
0.5 0.01 0.0
0.5 0.0125 0.0
0.5 0.015 0.0
0.5 0.0175 0.0
0.5 0.02 0.0
0.5 0.0225 0.0
0.5 0.025 0.0
0.5 0.0275 0.0
0.5 0.03 0.0
0.5 0.0325 0.0
0.5 0.035 0.0
0.5 0.0375 0.0
0.5 0.04 0.0
0.5 0.0425 0.0
0.5 0.045 0.0
0.5 0.0475 0.0
0.5 0.05 0.0
0.5 0.0525 0.0
0.5 0.055 0.0
0.5 0.0575 0.0
0.5 0.06 0.0
0.5 0.0625 0.0
0.5 0.065 0.0
0.5 0.0675 0.0
0.5 0.07 0.0
0.5 0.0725 0.0
0.5 0.075 0.0
0.5 0.0775 0.0
0.5 0.08 0.0
0.5 0.0825 0.0
0.5 0.085 0.0
0.5 0.08750000000000001 0.0
0.5 0.09 0.0
0.5 0.0925 0.0
0.5 0.095 0.0
0.5 0.0975 0.0
0.0025 0.0025 0.0
0.005 0.0025 0.0
0.0075 0.0025 0.0
0.01 0.0025 0.0
0.0125 0.0025 0.0
0.015 0.0025 0.0
0.0175 0.0025 0.0
0.02 0.0025 0.0
0.0225 0.0025 0.0
0.025 0.0025 0.0
0.0275 0.0025 0.0
0.03 0.0025 0.0
0.0325 0.0025 0.0
0.035 0.0025 0.0
0.0375 0.0025 0.0
0.04 0.0025 0.0
0.0425 0.0025 0.0
0.045 0.0025 0.0
0.0475 0.0025 0.0
0.05 0.0025 0.0
0.0525 0.0025 0.0
0.055 0.0025 0.0
0.0575 0.0025 0.0
0.06 0.0025 0.0
0.0625 0.0025 0.0
0.065 0.0025 0.0
0.0675 0.0025 0.0
0.07 0.0025 0.0
0.0725 0.0025 0.0
0.075 0.0025 0.0
0.0775 0.0025 0.0
0.08 0.0025 0.0
0.0825 0.0025 0.0
0.085 0.0025 0.0
0.08750000000000001 0.0025 0.0
0.09 0.0025 0.0
0.0925 0.0025 0.0
0.095 0.0025 0.0
0.0975 0.0025 0.0
0.1 0.0025 0.0
0.10250000000000001 0.0025 0.0
0.105 0.0025 0.0
0.1075 0.0025 0.0
0.11 0.0025 0.0
0.1125 0.0025 0.0
0.115 0.0025 0.0
0.11750000000000001 0.0025 0.0
0.12 0.0025 0.0
0.1225 0.0025 0.0
0.125 0.0025 0.0
0.1275 0.0025 0.0
0.13 0.0025 0.0
0.1325 0.0025 0.0
0.135 0.0025 0.0
0.1375 0.0025 0.0
0.14 0.0025 0.0
0.14250000000000002 0.0025 0.0
0.145 0.0025 0.0
0.1475 0.0025 0.0
0.15 0.0025 0.0
0.1525 0.0025 0.0
0.155 0.0025 0.0
0.1575 0.0025 0.0
0.16 0.0025 0.0
0.1625 0.0025 0.0
0.165 0.0025 0.0
0.1675 0.0025 0.0
0.17 0.0025 0.0
0.17250000000000001 0.0025 0.0
0.17500000000000002 0.0025 0.0
0.1775 0.0025 0.0
0.18 0.0025 0.0
0.1825 0.0025 0.0
0.185 0.0025 0.0
0.1875 0.0025 0.0
0.19 0.0025 0.0
0.1925 0.0025 0.0
0.195 0.0025 0.0
0.1975 0.0025 0.0
0.2 0.0025 0.0
0.2025 0.0025 0.0
0.20500000000000002 0.0025 0.0
0.20750000000000002 0.0025 0.0
0.21 0.0025 0.0
0.2125 0.0025 0.0
0.215 0.0025 0.0
0.2175 0.0025 0.0
0.22 0.0025 0.0
0.2225 0.0025 0.0
0.225 0.0025 0.0
0.2275 0.0025 0.0
0.23 0.0025 0.0
0.2325 0.0025 0.0
0.23500000000000001 0.0025 0.0
0.23750000000000002 0.0025 0.0
0.24 0.0025 0.0
0.2425 0.0025 0.0
0.245 0.0025 0.0
0.2475 0.0025 0.0
0.25 0.0025 0.0
0.2525 0.0025 0.0
0.255 0.0025 0.0
0.2575 0.0025 0.0
0.26 0.0025 0.0
0.2625 0.0025 0.0
0.265 0.0025 0.0
0.2675 0.0025 0.0
0.27 0.0025 0.0
0.2725 0.0025 0.0
0.275 0.0025 0.0
0.2775 0.0025 0.0
0.28 0.0025 0.0
0.28250000000000003 0.0025 0.0
0.28500000000000003 0.0025 0.0
0.28750000000000003 0.0025 0.0
0.29 0.0025 0.0
0.2925 0.0025 0.0
0.295 0.0025 0.0
0.2975 0.0025 0.0
0.3 0.0025 0.0
0.3025 0.0025 0.0
0.305 0.0025 0.0
0.3075 0.0025 0.0
0.31 0.0025 0.0
0.3125 0.0025 0.0
0.315 0.0025 0.0
0.3175 0.0025 0.0
0.32 0.0025 0.0
0.3225 0.0025 0.0
[...]
CELL_DATA 8000
SCALARS phi float 1
LOOKUP_TABLE CellColors
0.26461943644767505
0.12697396693554622
0.07976208357022821
0.05945172549965459
0.048701983656531646
0.04209702322087111
0.037619926869068177
0.034379880190967854
0.03192479013264146
0.030000115421732504
0.02845114584186141
0.02717825218753728
0.026114307306047704
0.025212400142514066
0.02443873996210489
0.023768357047455536
0.023182392024494933
0.022666327656325865
0.022208801228396035
0.02180078686381939
0.021435020287470484
0.021105586082764628
0.020807616058854318
0.020537065201241378
0.020290542934807282
0.020065184502693987
0.019858551797719535
0.019668556029678323
0.019493396757810054
0.01933151335229085
0.01918154603148757
0.019042304364268257
0.01891274163004996
0.018791933785997524
0.018679062071816722
0.018573398517654573
0.018474293805255903
0.018381167058963328
0.018293497222382393
0.018210815734545666
0.018132700275473833
0.01805876940428882
0.01798867795087553
0.01792211303906613
0.017858790626178334
0.017798452458198177
0.017740863369696207
0.017685808892860772
0.017633093162110165
0.017582537098651443
0.017533976839544444
0.017487262357075956
0.017442256212935454
0.017398832410078946
0.01735687533144176
0.017316278773173637
0.017276945082720815
0.01723878440223418
0.01720171400539316
0.017165657709111062
0.017130545342532402
0.017096312260661897
0.017062898894486485
0.017030250331958798
0.016998315925982305
0.01696704892828269
0.016936406151660064
0.016906347665578744
0.016876836529249557
0.016847838561985337
0.01681932214461236
0.016791258041122414
0.016763619228880585
0.01673638072904871
0.016709519435052875
0.016683013943430594
0.016656844395700622
0.016630992340329314
0.01660544062022841
0.016580173284966825
0.016555175520643766
0.016530433586849892
0.01650593475082958
0.01648166721338544
0.01645762002709685
0.016433783012404387
0.016410146679204037
0.01638670216049795
0.01636344116138606
0.016340355922803886
0.01631743919620022
0.016294684223495615
0.01627208471637465
0.016249634830192795
0.01622732913027662
0.01620516255160804
0.016183130355888392
0.016161228091705553
0.01613945156322373
0.016117796810485138
0.016096260100917192
0.016074837928344
0.01605352701395115
0.01603232430381852
0.016011226959540308
0.0159902323412091
0.01596933798462984
0.01594854157631088
0.015927840930267056
0.015907233970064775
0.015886718718149874
0.01586629329270434
0.015845955910482736
0.015825704892697093
0.01580553867041859
0.015785455786339556
0.015765454890996945
0.015745534733300228
0.01572569414686923
0.01570593203476498
0.01568624735543285
0.015666639112132005
0.01564710634708508
0.015627648140412467
0.015608263612918904
0.015588951931157303
0.015569712312967256
0.015550544031844724
0.015531446418952719
0.015512418862195216
0.015493460802399418
0.015474571727158196
0.015455751163203626
0.015436998668302322
0.015418313823614187
0.015399696227283067
0.015381145489769453
0.015362661231125766
0.015344243080087819
0.01532589067455305
0.015307603662786664
0.015289381704590752
0.01527122447172772
0.015253131647111185
0.015235102922615469
0.015217137995702306
0.01519923656529946
0.015181398327417592
0.015163622970885771
0.015145910173434524
0.015128259598275429
0.015110670891344252
0.015093143679398268
0.01507567756905705
0.015058272146613412
0.015040926978153867
0.015023641609459746
0.015006415565477787
0.014989248349765165
0.014972139444875762
0.014955088314739658
0.014938094409515913
0.014921157172448785
0.014904276047603717
0.014887450487680552
0.014870679962530421
0.014853963970787754
0.014837302057802369
0.014820693841782997
0.014804139047142647
0.014787637541551064
0.0147711893736086
0.014754794811899837
0.014738454390756541
0.014722168968886949
0.014705939801780242
0.014689768620334206
0.014673657703118743
0.014657609932574173
0.014641628833127912
0.014625718591902597
0.014609884052181924
0.014594130648049462
0.014578464227018193
0.014562890694442015
0.0145474154004383
0.014532042152085152
0.014516771648740693
0.014501599000417881
0.014486509781146682
0.014471473699841987
0.014456434213229613
0.014441290781816376
0.014425866766505912
0.014409846546585092
0.01439263876060937
0.014373039315819411
0.01434828408996539
0.014311074447621724
0.014274665512538325
0.40643802106010657
0.2807701696413329
0.20823393399699253
0.16576192575108376
0.13932089190880367
0.12172472510716972
0.10931518434823725
0.10014431410073119
0.09311161861016372
0.08755805563801003
0.08306792529715709
0.0793671040933936
0.0762678988845824
0.07363762945760452
0.07137991122106191
0.06942306070327232
0.06771266498951947
0.06620667417865539
0.064872072757432
0.06368256928435491
0.06261696044023904
0.0616579511848938
0.06079128898175688
0.06000511836046684
0.059289493176969084
0.05863600375315673
0.05803748875878162
0.057487810148947584
0.05698167544329255
0.05651449598090387
0.056082272920484254
0.055681504931007327
0.05530911298134369
0.054962378640383405
0.05463889306760737
0.05433651452450351
0.05405333276997675
0.053787639084834415
0.053537900913691
0.05330274028613444
0.053080915347543264
0.052871304498824566
0.052672892770118836
0.052484760103787505
0.0523060712195174
0.052136066741719604
0.05197405533278966
0.05181940668399612
0.05167154531134767
0.051529945133999056
0.0513941247736701
0.05126364345116864
0.05113809732743506
0.05101711616611652
0.05090036026114623
0.05078751763154198
0.050678301504806574
0.0505724480907665
0.05046971461517556
0.050369877563628596
0.0502727310901862
0.050178085561827096
0.050085766224030784
0.049995611976934855
0.04990747424937007
0.049821215958006926
0.04973671054497862
0.049653841096351944
0.049572499548686096
0.04949258598725451
0.0494140080288966
0.049336680271015086
0.04926052378233466
0.0491854656138411
0.04911143831873046
0.049038379483953155
0.04896623128754218
0.04889494010058289
0.0488244561481537
0.0487547332313788
0.048685728498102314
0.04861740223940954
0.048549717688247264
0.048482640805107835
0.04841614004969713
0.04835018615000725
0.04828475188601744
0.048219811903048276
0.04815534256210041
0.048091321825467985
0.04802772916887603
0.04796454550775871
0.04790175312496916
0.047839335589647404
0.04777727766174028
0.04771556518313228
0.04765418496306717
0.04759312467023834
0.04753237274441177
0.047471918335948805
0.04741175127354517
0.047351862052077705
0.0472922418270819
0.04723288240206707
0.047173776199331253
0.04711491621197233
0.0470562959415847
0.04699790933054052
0.046939750698982756
0.046881814695081944
0.04682409626367169
0.046766590634056825
0.04670929332345216
0.04665220014900726
0.046595307239571115
0.04653861103887918
0.04648210829471955
0.046425796033042505
0.04636967152049883
0.04631373222208126
0.04625797576152419
0.04620239989088977
0.046147002473040814
0.046091781477481907
0.04603673498721215
0.04598186121232216
0.04592715850528491
0.04587262537319888
0.045818260483430545
0.04576406266083392
0.045710030876577976
0.04565616423018772
0.04560246192742139
0.04554892325697175
0.045495547568761736
0.04544233425597161
0.04538928274207295
0.04533639247322021
0.045283662915490776
0.04523109355575316
0.045178683904446716
0.04512643349832937
0.04507434190136539
0.04502240870242504
0.04497063350929636
0.04491901593944468
0.044867555608665
0.044816252118981055
0.04476510504684369
0.04471411393216993
0.04466327826846469
0.0446125974943847
0.044562070987426
0.044511698060436374
0.04446147796101657
0.04441140987277424
0.04436149291660151
0.04431172615051036
0.04426210856829074
0.044212639099525386
0.044163316614757676
0.044114139938606696
0.04406510787051136
0.04401621920953033
0.04396747277907711
0.04391886745128242
0.043870402177332866
0.04382207603492484
0.043773888301934204
0.04372583855588029
0.043677926787856515
0.04363015351696616
0.043582519901984335
0.043535027864567394
0.04348768024728163
0.04344048101780964
0.0433934355023423
0.04334655060756751
0.04329983499235696
0.043253299175212076
0.04320695558256048
0.04316081852263176
0.04311490400557762
0.04306922925707054
0.043023811728199954
0.04297866737681733
0.042933807909173546
0.04288923644980917
0.042844940742175444
0.042800882467323345
0.04275698042231919
0.042713083657880284
0.042668927452705924
0.04262405860559067
0.042577702904255076
0.04252851688833366
0.0424740945415783
0.04240992705617782
0.04232711682345855
0.04225404439753301
0.4529804944301234
0.36499256087445725
0.29832519953999764
0.25094172492998207
0.21739244303844832
0.1931527864320989
0.17514440333222053
0.16138339365250348
0.1505954418081344
0.14194774214421646
0.13488224983491015
0.12901487942852694
0.12407433724841727
0.11986434668842819
0.11623977852347232
0.11309119812795773
0.1103346223088169
0.10790457437285364
0.10574927433394617
0.10382724292953444
0.10210486243496629
0.1005545970422353
0.09915367471624474
0.09788309666752186
0.09672688334310128
0.09567149414555262
0.09470537652097764
0.09381861221852562
0.09300263701922008
0.09225001649169214
0.09155426501593467
0.0909096986975204
0.09031131512632659
0.08975469449666136
0.08923591774185896
0.08875149827891794
0.08829832475655315
0.08787361280696221
0.08747486419477107
0.08709983201489528
0.08674649083336355
0.08641301093946233
0.08609773612740876
0.08579916456285525
0.08551593229620968
0.08524679894177217
0.08499063505941719
0.08474641089868513
0.08451318633863561
0.08429010197872006
0.08407637134507666
0.08387127409877247
0.08367415005190819
0.08348439378617671
0.08330144973455494
0.0831248076794437
0.0829539986782612
0.0827885914253056
0.08262818901872267
0.08247242606608846
0.08232096605850758
0.08217349896715356
0.08202973904406204
0.08188942282067471
0.08175230729128301
0.08161816825713028
0.08148679880420938
0.08135800789699553
0.08123161908403471
0.08110746931935865
0.0809854079014076
0.08086529552131855
0.08074700340191392
0.08063041250356
0.08051541277585386
0.08040190244382577
0.08028978733027557
0.08017898022664892
0.08006940032828588
0.0799609727434468
0.07985362807161904
0.07974730203217033
0.07964193511739151
0.07953747224853214
0.07943386242718621
0.07933105838983695
0.0792290162826187
0.07912769537274374
0.07902705780465648
0.07892706839838852
0.0788276944799242
0.07872890573066835
0.07863067404429135
0.07853297338223983
0.07843577962288134
0.07833907040367082
0.07824282496102433
0.07814702397767077
0.0780516494497818
0.07795668458399345
0.07786211372735925
0.07776792232382986
0.07767409688318191
0.07758062494594413
0.07748749503177488
0.07739469656694416
0.07730221979537424
0.07721005568373855
0.07711819583287005
0.07702663240565867
0.07693535807730091
0.07684436600875674
0.07675364983955263
0.07666320369223203
0.07657302217842889
0.07648310039646841
0.07639343391303524
0.07630401872635822
0.07621485121411863
0.07612592807396579
0.07603724626659586
0.0759488029703659
0.07586059555307265
0.07577262156217682
0.07568487873072541
0.07559736499339373
0.07551007850576807
0.07542301766018057
0.07533618109283306
0.07524956767921503
0.07516317651742244
0.07507700690136963
0.0749910582875877
0.07490533026005551
0.07481982249730104
0.07473453474503766
0.07464946679618424
0.07456461847861649
0.07447998964970966
0.07439558019582798
0.07431139003441964
0.07422741911621797
0.07414366742519937
0.0740601349744538
0.07397682179705115
0.07389372793221857
0.0738108534082965
0.07372819822450062
0.07364576233320672
0.073563545623555
0.0734815479063672
0.07339976890035903
0.07331820822045233
0.07323686536985641
0.0731557397374054
0.0730748305999439
0.07299413712716174
0.0729136583850243
0.07283339333545233
0.07275334083413669
0.07267349963301967
0.072593868395522
0.07251444572878446
0.07243523022947854
0.07235622053356577
0.0722774153620551
0.0721988135660774
0.07212041418909053
0.07204221656978047
0.07196422049781845
0.07188642641079307
0.07180883560258074
0.07173145041973024
0.07165427445361
0.0715773127679822
0.07150057220210489
0.07142406174797544
0.07134779294423493
0.07127178020494922
0.07119604103079778
0.07112059609989758
0.07104546923770794
0.07097068718149242
0.07089627892300668
0.07082227431618411
0.07074870159520526
0.0706755833575731
0.07060293028663792
0.07053073139647754
0.07045893892432788
0.07038744501198341
0.07031604554764899
0.07024438342014078
0.07017185805373462
0.07009747819285003
0.07001961663596462
0.0699355958631378
0.06984099794717018
0.06972866886670712
0.06963511608439756
0.4722467918047685
0.4123018152713478
0.35888360138647196
0.315361365573548
0.28114516130898265
0.2544554849664057
0.23350915733814775
0.2168655113056622
0.20344717981963006
0.19247001651500648
0.1833657891772145
0.17572002445235865
0.16922684908185745
0.1636573908596568
0.15883790792083508
0.15463462609907352
0.15094314288934763
0.14768093793471923
0.14478200995403867
0.14219298594067717
0.13987026358960877
0.13777788742535974
0.13588595085452074
0.1341693791280482
0.13260699207343965
0.1311807755053798
0.12987531015572173
0.1286773203229868
0.12757531391809707
0.1265592927834575
0.12562051768979618
0.12475131645152229
0.12394492640653566
0.12319536436868642
0.12249731854173686
0.12184605807851133
0.12123735699327903
0.12066742990595708
0.12013287756425957
0.11963064037511383
0.11915795846493978
0.11871233715375569
0.11829151708254274
0.11789344843310484
0.11751626868546047
0.1171582832819049
0.11681794857367986
0.11649385658842357
0.11618472139908408
0.11588936704848543
0.11560671699477139
0.11533578492555147
0.11507566666578527
0.1148255328842438
0.1145846224002655
0.11435223603201115
0.11412773101663759
0.11391051603158545
0.11370004678490679
0.11349582208428524
0.11329738028172709
0.11310429602102735
0.1129161772549867
0.11273266251934322
0.11255341844597698
0.11237813748583814
0.11220653581048912
0.11203835137424115
0.11187334213626178
0.11171128445029334
0.11155197162326833
0.11139521262810174
0.11124083094034161
0.11108866346153669
0.11093855949737792
0.11079037977412483
0.11064399549706205
0.110499287471894
0.11035614531610062
0.11021446677811213
0.11007415716074075
0.10993512882189328
0.1097973007126356
0.10966059791744924
0.10952495118139711
0.10939029643303365
0.10925657432794103
0.10912372983925038
0.10899171191052728
0.10886047317081327
0.10872996969926063
0.10860016082126517
0.10847100891831826
0.10834247923720663
0.10821453968904639
0.10808716063506711
0.10796031466430779
0.10783397637684859
0.10770812219125978
0.10758273019301888
0.10745778003097943
0.1073332528549467
0.10720913127515588
0.10708539931955115
0.1069620423692304
0.10683904706375577
0.10671640118093959
0.10659409350511483
0.10647211370124574
0.10635045220997784
0.10622910017302763
0.10610804939138109
0.10598729231199773
0.10586682203294295
0.10574663231304199
0.10562671757145888
0.10550707286587092
0.10538769384466222
0.10526857667679941
0.10514971796996928
0.10503111469084823
0.10491276410029692
0.10479466371176235
0.10467681127514517
0.10455920478274287
0.10444184248986188
0.10432472294076718
0.10420784499076212
0.10409120781701761
0.10397481091378298
0.10385865407112535
0.10374273733961875
0.10362706098579247
0.10351162544427997
0.10339643127244696
0.10328147911206417
0.1031667696607498
0.1030523036539147
0.10293808185621452
0.10282410506026372
0.10271037408960702
0.10259688980255433
0.10248365309344624
0.1023706648883973
0.10225792613378683
0.10214543777765552
0.10203320074611995
0.10192121591801394
0.10180948410058752
0.10169800600752989
0.10158678223901553
0.1014758132631992
0.10136509939991299
0.10125464080909849
0.10114443748680253
0.10103448926921646
0.10092479584117396
0.10081535674267746
0.10070617136850121
0.10059723896240864
0.10048855861576521
0.10038012928433403
0.10027194983205664
0.10016401909779417
0.10005633596886833
0.09994889944519939
0.09984170869482799
0.09973476312673539
0.09962806252010588
0.09952160723412763
0.0994153984838478
0.09930943863449129
0.09920373147196851
0.09909828245614069
0.09899309901887599
0.09888819097659021
0.09878357106490666
0.09867925551236013
0.09857526452820453
0.09847162262859999
0.09836835881544673
0.09826550663915405
0.09816310405369719
0.09806119277862471
0.09795981676798315
0.09785901938416157
0.09775883880198552
0.09765930083024835
0.09756040780316277
0.09746212161039686
0.09736433805956352
0.0972668481959187
0.09716928007075099
0.09707101162849788
0.09697104032006187
0.09686778772264097
0.09675881761309467
0.09664047231936433
0.0965075883333093
0.09640106695287452
0.4819852967181037
0.44045344724027746
0.3995711642135116
0.36287253868142577
0.3315252695093315
0.30538304804062355
0.28376775186448144
0.2658903693083558
0.2510291097342611
0.23858294107514164
0.22807199186942817
0.2191198998188656
0.21143302249479665
0.2047818759163117
0.19898613870827522
0.193903063331924
0.18941869695645733
0.1854412773070909
0.1818962642695151
0.17872258905700902
0.17586980835011484
0.17329593130218687
0.17096574704528328
0.16884952589151006
0.16692200222155157
0.16516157231589018
0.1635496577228725
0.16207019660584573
0.16070923418301422
0.1594545902884471
0.1582955876036288
0.15722282823646733
0.15622800920273078
0.1553037692482695
0.15444356087513522
0.1536415427493843
0.15289248880907594
0.15219171124811048
0.15153499503624723
0.1509185419069457
0.15033892205425098
0.14979303222176302
0.14927805931852067
0.1487914489505537
0.14833087824748242
0.1478942322347584
0.1474795829772868
0.147085170907943
0.14670938806498487
0.1463507631972698
0.14600794872226106
0.1456797093727716
0.14536491220151349
0.14506251757340088
0.144771570890828
0.1444911949745853
0.14422058314110825
0.14395899301903325
0.14370574107040088
0.14346019770532656
0.14322178286039977
0.14298996194878583
0.1427642421418017
0.1425441689684538
0.14232932321396743
0.14211931808164913
0.14191379657843525
0.14171242909948453
0.1415149112088353
0.1413209616246082
0.14113032041112422
0.1409427473620081
0.14075802053954362
0.14057593492615306
0.14039630114817667
0.14021894424905104
0.14004370251309814
0.1398704263634372
0.1396989773676097
0.13952922737559337
0.13936105778921082
0.13919435893174545
0.13902902946815365
0.13886497583013943
0.1387021116244673
0.13854035703381243
0.13837963824102475
0.13821988691072112
0.13806103974867565
0.13790303813953367
0.13774582784734354
0.13758935875625553
0.13743358462925478
0.1372784628671455
0.1371239542557884
0.13697002269703196
0.13681663492862034
0.1366637602490967
0.13651137027090673
0.1363594387236389
0.1362079413179923
0.13605685566339107
0.13590616121589585
0.13575583922573073
0.1356058726584912
0.13545624607814202
0.1353069454965331
0.13515795820660717
0.1350092726212222
0.13486087813700834
0.13471276503570662
0.13456492442686088
0.13441734822728252
0.13427002916532077
0.13412296079277355
0.1339761374858503
0.13382955442019148
0.13368320751318927
0.1335370933373156
0.13339120901723228
0.13324555212806563
0.1331001206112648
0.13295491271902068
0.13280992699070449
0.13266516225761527
0.13252061766710946
0.13237629271455367
0.13223218727146815
0.13208830160033017
0.13194463635017215
0.13180119253150185
0.1316579714732537
0.13151497476761356
0.13137220421013537
0.13122966174248984
0.13108734940372688
0.13094526929361994
0.13080342354913074
0.13066181433285384
0.13052044383077127
0.1303793142557314
0.13023842785253475
0.1300977869002923
0.12995739370809634
0.12981725060144664
0.1296773598993525
0.12953772388480883
0.12939834477305065
0.1292592246815648
0.1291203656035263
0.12898176938381567
0.12884343769612286
0.12870537202160456
0.12856757363264162
0.1284300435864659
0.128292782730587
0.1281557917158419
0.12801907100763485
0.12788262088661242
0.12774644143868202
0.12761053254703536
0.1274748939067665
0.1273395250774598
0.12720442557060074
0.1270695949484951
0.1269350329075157
0.12680073934095057
0.12666671441485766
0.12653295871458262
0.12639947350256872
0.12626626107254138
0.126133325132143
0.12600067114713373
0.12586830664875032
0.12573624159139735
0.12560448886853323
0.1254730650115699
0.12534199096450002
0.1252112927611117
0.12508100200373728
0.12495115618462663
0.12482179893197667
0.12469298009833722
0.12456475534990942
0.12443718479900863
0.12431033028938761
0.12418425090269472
0.12405899587326973
0.12393459360652948
0.12381103509872132
0.12368824929161133
0.12356606660029093
0.12344416613741356
0.12332200174867444