# vtk DataFile Version 3.0
jCFD simulation data
ASCII
DATASET UNSTRUCTURED_GRID
POINTS 8241 double
0.0 0.0 0.0
0.5 0.0 0.0
0.0 0.1 0.0
0.5 0.1 0.0
0.0025 0.0 0.0
0.005 0.0 0.0
0.0075 0.0 0.0
0.01 0.0 0.0
0.0125 0.0 0.0
0.015 0.0 0.0
0.0175 0.0 0.0
0.02 0.0 0.0
0.0225 0.0 0.0
0.025 0.0 0.0
0.0275 0.0 0.0
0.03 0.0 0.0
0.0325 0.0 0.0
0.035 0.0 0.0
0.0375 0.0 0.0
0.04 0.0 0.0
0.0425 0.0 0.0
0.045 0.0 0.0
0.0475 0.0 0.0
0.05 0.0 0.0
0.0525 0.0 0.0
0.055 0.0 0.0
0.0575 0.0 0.0
0.06 0.0 0.0
0.0625 0.0 0.0
0.065 0.0 0.0
0.0675 0.0 0.0
0.07 0.0 0.0
0.0725 0.0 0.0
0.075 0.0 0.0
0.0775 0.0 0.0
0.08 0.0 0.0
0.0825 0.0 0.0
0.085 0.0 0.0
0.08750000000000001 0.0 0.0
0.09 0.0 0.0
0.0925 0.0 0.0
0.095 0.0 0.0
0.0975 0.0 0.0
0.1 0.0 0.0
0.10250000000000001 0.0 0.0
0.105 0.0 0.0
0.1075 0.0 0.0
0.11 0.0 0.0
0.1125 0.0 0.0
0.115 0.0 0.0
0.11750000000000001 0.0 0.0
0.12 0.0 0.0
0.1225 0.0 0.0
0.125 0.0 0.0
0.1275 0.0 0.0
0.13 0.0 0.0
0.1325 0.0 0.0
0.135 0.0 0.0
0.1375 0.0 0.0
0.14 0.0 0.0
0.14250000000000002 0.0 0.0
0.145 0.0 0.0
0.1475 0.0 0.0
0.15 0.0 0.0
0.1525 0.0 0.0
0.155 0.0 0.0
0.1575 0.0 0.0
0.16 0.0 0.0
0.1625 0.0 0.0
0.165 0.0 0.0
0.1675 0.0 0.0
0.17 0.0 0.0
0.17250000000000001 0.0 0.0
0.17500000000000002 0.0 0.0
0.1775 0.0 0.0
0.18 0.0 0.0
0.1825 0.0 0.0
0.185 0.0 0.0
0.1875 0.0 0.0
0.19 0.0 0.0
0.1925 0.0 0.0
0.195 0.0 0.0
0.1975 0.0 0.0
0.2 0.0 0.0
0.2025 0.0 0.0
0.20500000000000002 0.0 0.0
0.20750000000000002 0.0 0.0
0.21 0.0 0.0
0.2125 0.0 0.0
0.215 0.0 0.0
0.2175 0.0 0.0
0.22 0.0 0.0
0.2225 0.0 0.0
0.225 0.0 0.0
0.2275 0.0 0.0
0.23 0.0 0.0
0.2325 0.0 0.0
0.23500000000000001 0.0 0.0
0.23750000000000002 0.0 0.0
0.24 0.0 0.0
0.2425 0.0 0.0
0.245 0.0 0.0
0.2475 0.0 0.0
0.25 0.0 0.0
0.2525 0.0 0.0
0.255 0.0 0.0
0.2575 0.0 0.0
0.26 0.0 0.0
0.2625 0.0 0.0
0.265 0.0 0.0
0.2675 0.0 0.0
0.27 0.0 0.0
0.2725 0.0 0.0
0.275 0.0 0.0
0.2775 0.0 0.0
0.28 0.0 0.0
0.28250000000000003 0.0 0.0
0.28500000000000003 0.0 0.0
0.28750000000000003 0.0 0.0
0.29 0.0 0.0
0.2925 0.0 0.0
0.295 0.0 0.0
0.2975 0.0 0.0
0.3 0.0 0.0
0.3025 0.0 0.0
0.305 0.0 0.0
0.3075 0.0 0.0
0.31 0.0 0.0
0.3125 0.0 0.0
0.315 0.0 0.0
0.3175 0.0 0.0
0.32 0.0 0.0
0.3225 0.0 0.0
0.325 0.0 0.0
0.3275 0.0 0.0
0.33 0.0 0.0
0.3325 0.0 0.0
0.335 0.0 0.0
0.3375 0.0 0.0
0.34 0.0 0.0
0.3425 0.0 0.0
0.34500000000000003 0.0 0.0
0.34750000000000003 0.0 0.0
0.35000000000000003 0.0 0.0
0.3525 0.0 0.0
0.355 0.0 0.0
0.3575 0.0 0.0
0.36 0.0 0.0
0.3625 0.0 0.0
0.365 0.0 0.0
0.3675 0.0 0.0
0.37 0.0 0.0
0.3725 0.0 0.0
0.375 0.0 0.0
0.3775 0.0 0.0
0.38 0.0 0.0
0.3825 0.0 0.0
0.385 0.0 0.0
0.3875 0.0 0.0
0.39 0.0 0.0
0.3925 0.0 0.0
0.395 0.0 0.0
0.3975 0.0 0.0
0.4 0.0 0.0
0.4025 0.0 0.0
0.405 0.0 0.0
0.40750000000000003 0.0 0.0
0.41000000000000003 0.0 0.0
0.41250000000000003 0.0 0.0
0.41500000000000004 0.0 0.0
0.4175 0.0 0.0
0.42 0.0 0.0
0.4225 0.0 0.0
0.425 0.0 0.0
0.4275 0.0 0.0
0.43 0.0 0.0
0.4325 0.0 0.0
0.435 0.0 0.0
0.4375 0.0 0.0
0.44 0.0 0.0
0.4425 0.0 0.0
0.445 0.0 0.0
0.4475 0.0 0.0
0.45 0.0 0.0
0.4525 0.0 0.0
0.455 0.0 0.0
0.4575 0.0 0.0
0.46 0.0 0.0
0.4625 0.0 0.0
0.465 0.0 0.0
0.4675 0.0 0.0
0.47000000000000003 0.0 0.0
0.47250000000000003 0.0 0.0
0.47500000000000003 0.0 0.0
0.47750000000000004 0.0 0.0
0.48 0.0 0.0
0.4825 0.0 0.0
0.485 0.0 0.0
0.4875 0.0 0.0
0.49 0.0 0.0
0.4925 0.0 0.0
0.495 0.0 0.0
0.4975 0.0 0.0
0.0025 0.1 0.0
0.005 0.1 0.0
0.0075 0.1 0.0
0.01 0.1 0.0
0.0125 0.1 0.0
0.015 0.1 0.0
0.0175 0.1 0.0
0.02 0.1 0.0
0.0225 0.1 0.0
0.025 0.1 0.0
0.0275 0.1 0.0
0.03 0.1 0.0
0.0325 0.1 0.0
0.035 0.1 0.0
0.0375 0.1 0.0
0.04 0.1 0.0
0.0425 0.1 0.0
0.045 0.1 0.0
0.0475 0.1 0.0
0.05 0.1 0.0
0.0525 0.1 0.0
0.055 0.1 0.0
0.0575 0.1 0.0
0.06 0.1 0.0
0.0625 0.1 0.0
0.065 0.1 0.0
0.0675 0.1 0.0
0.07 0.1 0.0
0.0725 0.1 0.0
0.075 0.1 0.0
0.0775 0.1 0.0
0.08 0.1 0.0
0.0825 0.1 0.0
0.085 0.1 0.0
0.08750000000000001 0.1 0.0
0.09 0.1 0.0
0.0925 0.1 0.0
0.095 0.1 0.0
0.0975 0.1 0.0
0.1 0.1 0.0
0.10250000000000001 0.1 0.0
0.105 0.1 0.0
0.1075 0.1 0.0
0.11 0.1 0.0
0.1125 0.1 0.0
0.115 0.1 0.0
0.11750000000000001 0.1 0.0
0.12 0.1 0.0
0.1225 0.1 0.0
0.125 0.1 0.0
0.1275 0.1 0.0
0.13 0.1 0.0
0.1325 0.1 0.0
0.135 0.1 0.0
0.1375 0.1 0.0
0.14 0.1 0.0
0.14250000000000002 0.1 0.0
0.145 0.1 0.0
0.1475 0.1 0.0
0.15 0.1 0.0
0.1525 0.1 0.0
0.155 0.1 0.0
0.1575 0.1 0.0
0.16 0.1 0.0
0.1625 0.1 0.0
0.165 0.1 0.0
0.1675 0.1 0.0
0.17 0.1 0.0
0.17250000000000001 0.1 0.0
0.17500000000000002 0.1 0.0
0.1775 0.1 0.0
0.18 0.1 0.0
0.1825 0.1 0.0
0.185 0.1 0.0
0.1875 0.1 0.0
0.19 0.1 0.0
0.1925 0.1 0.0
0.195 0.1 0.0
0.1975 0.1 0.0
0.2 0.1 0.0
0.2025 0.1 0.0
0.20500000000000002 0.1 0.0
0.20750000000000002 0.1 0.0
0.21 0.1 0.0
0.2125 0.1 0.0
0.215 0.1 0.0
0.2175 0.1 0.0
0.22 0.1 0.0
0.2225 0.1 0.0
0.225 0.1 0.0
0.2275 0.1 0.0
0.23 0.1 0.0
0.2325 0.1 0.0
0.23500000000000001 0.1 0.0
0.23750000000000002 0.1 0.0
0.24 0.1 0.0
0.2425 0.1 0.0
0.245 0.1 0.0
0.2475 0.1 0.0
0.25 0.1 0.0
0.2525 0.1 0.0
0.255 0.1 0.0
0.2575 0.1 0.0
0.26 0.1 0.0
0.2625 0.1 0.0
0.265 0.1 0.0
0.2675 0.1 0.0
0.27 0.1 0.0
0.2725 0.1 0.0
0.275 0.1 0.0
0.2775 0.1 0.0
0.28 0.1 0.0
0.28250000000000003 0.1 0.0
0.28500000000000003 0.1 0.0
0.28750000000000003 0.1 0.0
0.29 0.1 0.0
0.2925 0.1 0.0
0.295 0.1 0.0
0.2975 0.1 0.0
0.3 0.1 0.0
0.3025 0.1 0.0
0.305 0.1 0.0
0.3075 0.1 0.0
0.31 0.1 0.0
0.3125 0.1 0.0
0.315 0.1 0.0
0.3175 0.1 0.0
0.32 0.1 0.0
0.3225 0.1 0.0
0.325 0.1 0.0
0.3275 0.1 0.0
0.33 0.1 0.0
0.3325 0.1 0.0
0.335 0.1 0.0
0.3375 0.1 0.0
0.34 0.1 0.0
0.3425 0.1 0.0
0.34500000000000003 0.1 0.0
0.34750000000000003 0.1 0.0
0.35000000000000003 0.1 0.0
0.3525 0.1 0.0
0.355 0.1 0.0
0.3575 0.1 0.0
0.36 0.1 0.0
0.3625 0.1 0.0
0.365 0.1 0.0
0.3675 0.1 0.0
0.37 0.1 0.0
0.3725 0.1 0.0
0.375 0.1 0.0
0.3775 0.1 0.0
0.38 0.1 0.0
0.3825 0.1 0.0
0.385 0.1 0.0
0.3875 0.1 0.0
0.39 0.1 0.0
0.3925 0.1 0.0
0.395 0.1 0.0
0.3975 0.1 0.0
0.4 0.1 0.0
0.4025 0.1 0.0
0.405 0.1 0.0
0.40750000000000003 0.1 0.0
0.41000000000000003 0.1 0.0
0.41250000000000003 0.1 0.0
0.41500000000000004 0.1 0.0
0.4175 0.1 0.0
0.42 0.1 0.0
0.4225 0.1 0.0
0.425 0.1 0.0
0.4275 0.1 0.0
0.43 0.1 0.0
0.4325 0.1 0.0
0.435 0.1 0.0
0.4375 0.1 0.0
0.44 0.1 0.0
0.4425 0.1 0.0
0.445 0.1 0.0
0.4475 0.1 0.0
0.45 0.1 0.0
0.4525 0.1 0.0
0.455 0.1 0.0
0.4575 0.1 0.0
0.46 0.1 0.0
0.4625 0.1 0.0
0.465 0.1 0.0
0.4675 0.1 0.0
0.47000000000000003 0.1 0.0
0.47250000000000003 0.1 0.0
0.47500000000000003 0.1 0.0
0.47750000000000004 0.1 0.0
0.48 0.1 0.0
0.4825 0.1 0.0
0.485 0.1 0.0
0.4875 0.1 0.0
0.49 0.1 0.0
0.4925 0.1 0.0
0.495 0.1 0.0
0.4975 0.1 0.0
0.0 0.0025 0.0
0.0 0.005 0.0
0.0 0.0075 0.0
0.0 0.01 0.0
0.0 0.0125 0.0
0.0 0.015 0.0
0.0 0.0175 0.0
0.0 0.02 0.0
0.0 0.0225 0.0
0.0 0.025 0.0
0.0 0.0275 0.0
0.0 0.03 0.0
0.0 0.0325 0.0
0.0 0.035 0.0
0.0 0.0375 0.0
0.0 0.04 0.0
0.0 0.0425 0.0
0.0 0.045 0.0
0.0 0.0475 0.0
0.0 0.05 0.0
0.0 0.0525 0.0
0.0 0.055 0.0
0.0 0.0575 0.0
0.0 0.06 0.0
0.0 0.0625 0.0
0.0 0.065 0.0
0.0 0.0675 0.0
0.0 0.07 0.0
0.0 0.0725 0.0
0.0 0.075 0.0
0.0 0.0775 0.0
0.0 0.08 0.0
0.0 0.0825 0.0
0.0 0.085 0.0
0.0 0.08750000000000001 0.0
0.0 0.09 0.0
0.0 0.0925 0.0
0.0 0.095 0.0
0.0 0.0975 0.0
0.5 0.0025 0.0
0.5 0.005 0.0
0.5 0.0075 0.0
0.5 0.01 0.0
0.5 0.0125 0.0
0.5 0.015 0.0
0.5 0.0175 0.0
0.5 0.02 0.0
0.5 0.0225 0.0
0.5 0.025 0.0
0.5 0.0275 0.0
0.5 0.03 0.0
0.5 0.0325 0.0
0.5 0.035 0.0
0.5 0.0375 0.0
0.5 0.04 0.0
0.5 0.0425 0.0
0.5 0.045 0.0
0.5 0.0475 0.0
0.5 0.05 0.0
0.5 0.0525 0.0
0.5 0.055 0.0
0.5 0.0575 0.0
0.5 0.06 0.0
0.5 0.0625 0.0
0.5 0.065 0.0
0.5 0.0675 0.0
0.5 0.07 0.0
0.5 0.0725 0.0
0.5 0.075 0.0
0.5 0.0775 0.0
0.5 0.08 0.0
0.5 0.0825 0.0
0.5 0.085 0.0
0.5 0.08750000000000001 0.0
0.5 0.09 0.0
0.5 0.0925 0.0
0.5 0.095 0.0
0.5 0.0975 0.0
0.0025 0.0025 0.0
0.005 0.0025 0.0
0.0075 0.0025 0.0
0.01 0.0025 0.0
0.0125 0.0025 0.0
0.015 0.0025 0.0
0.0175 0.0025 0.0
0.02 0.0025 0.0
0.0225 0.0025 0.0
0.025 0.0025 0.0
0.0275 0.0025 0.0
0.03 0.0025 0.0
0.0325 0.0025 0.0
0.035 0.0025 0.0
0.0375 0.0025 0.0
0.04 0.0025 0.0
0.0425 0.0025 0.0
0.045 0.0025 0.0
0.0475 0.0025 0.0
0.05 0.0025 0.0
0.0525 0.0025 0.0
0.055 0.0025 0.0
0.0575 0.0025 0.0
0.06 0.0025 0.0
0.0625 0.0025 0.0
0.065 0.0025 0.0
0.0675 0.0025 0.0
0.07 0.0025 0.0
0.0725 0.0025 0.0
0.075 0.0025 0.0
0.0775 0.0025 0.0
0.08 0.0025 0.0
0.0825 0.0025 0.0
0.085 0.0025 0.0
0.08750000000000001 0.0025 0.0
0.09 0.0025 0.0
0.0925 0.0025 0.0
0.095 0.0025 0.0
0.0975 0.0025 0.0
0.1 0.0025 0.0
0.10250000000000001 0.0025 0.0
0.105 0.0025 0.0
0.1075 0.0025 0.0
0.11 0.0025 0.0
0.1125 0.0025 0.0
0.115 0.0025 0.0
0.11750000000000001 0.0025 0.0
0.12 0.0025 0.0
0.1225 0.0025 0.0
0.125 0.0025 0.0
0.1275 0.0025 0.0
0.13 0.0025 0.0
0.1325 0.0025 0.0
0.135 0.0025 0.0
0.1375 0.0025 0.0
0.14 0.0025 0.0
0.14250000000000002 0.0025 0.0
0.145 0.0025 0.0
0.1475 0.0025 0.0
0.15 0.0025 0.0
0.1525 0.0025 0.0
0.155 0.0025 0.0
0.1575 0.0025 0.0
0.16 0.0025 0.0
0.1625 0.0025 0.0
0.165 0.0025 0.0
0.1675 0.0025 0.0
0.17 0.0025 0.0
0.17250000000000001 0.0025 0.0
0.17500000000000002 0.0025 0.0
0.1775 0.0025 0.0
0.18 0.0025 0.0
0.1825 0.0025 0.0
0.185 0.0025 0.0
0.1875 0.0025 0.0
0.19 0.0025 0.0
0.1925 0.0025 0.0
0.195 0.0025 0.0
0.1975 0.0025 0.0
0.2 0.0025 0.0
0.2025 0.0025 0.0
0.20500000000000002 0.0025 0.0
0.20750000000000002 0.0025 0.0
0.21 0.0025 0.0
0.2125 0.0025 0.0
0.215 0.0025 0.0
0.2175 0.0025 0.0
0.22 0.0025 0.0
0.2225 0.0025 0.0
0.225 0.0025 0.0
0.2275 0.0025 0.0
0.23 0.0025 0.0
0.2325 0.0025 0.0
0.23500000000000001 0.0025 0.0
0.23750000000000002 0.0025 0.0
0.24 0.0025 0.0
0.2425 0.0025 0.0
0.245 0.0025 0.0
0.2475 0.0025 0.0
0.25 0.0025 0.0
0.2525 0.0025 0.0
0.255 0.0025 0.0
0.2575 0.0025 0.0
0.26 0.0025 0.0
0.2625 0.0025 0.0
0.265 0.0025 0.0
0.2675 0.0025 0.0
0.27 0.0025 0.0
0.2725 0.0025 0.0
0.275 0.0025 0.0
0.2775 0.0025 0.0
0.28 0.0025 0.0
0.28250000000000003 0.0025 0.0
0.28500000000000003 0.0025 0.0
0.28750000000000003 0.0025 0.0
0.29 0.0025 0.0
0.2925 0.0025 0.0
0.295 0.0025 0.0
0.2975 0.0025 0.0
0.3 0.0025 0.0
0.3025 0.0025 0.0
0.305 0.0025 0.0
0.3075 0.0025 0.0
0.31 0.0025 0.0
0.3125 0.0025 0.0
0.315 0.0025 0.0
0.3175 0.0025 0.0
0.32 0.0025 0.0
0.3225 0.0025 0.0
[...]
CELL_DATA 8000
SCALARS phi float 1
LOOKUP_TABLE CellColors
0.2639568985169553
0.12519157628750055
0.0773195924300253
0.05654640913884676
0.04544123114138516
0.03854737165815528
0.03382745431574397
0.03037879903608346
0.027741547886496368
0.02565575211924738
0.023962796877213727
0.0225601559475493
0.021378461839904963
0.02036902518115269
0.01949665369585241
0.018735274980237096
0.018065131455531774
0.017470946056825278
0.016940715745277904
0.016464887761392225
0.016035762284731504
0.01564705135262835
0.015293562152515087
0.014970970141149917
0.014675646695879837
0.014404521554781393
0.014154974582350035
0.013924753428113416
0.013711910862140872
0.013514755689681376
0.013331812919077854
0.013161789961438634
0.013003547319448343
0.012856074525487425
0.012718472195449452
0.012589938467270887
0.012469756569616287
0.012357282387186077
0.012251933907493693
0.012153184240170319
0.01206055695925715
0.011973621010210246
0.01189198428500583
0.011815287562280787
0.01174320060898588
0.011675420188138889
0.011611668358158262
0.011551690159522158
0.011495251146219701
0.011442135405115267
0.01139214382919157
0.0113450919765265
0.011300807570876498
0.011259128643227326
0.01121990318744605
0.011182990007756358
0.011148259446285128
0.011115592912194496
0.011084881216181619
0.011056022469029867
0.01102892020300885
0.011003481984581957
0.010979618756505783
0.010957245263837616
0.010936281533372134
0.01091665453276119
0.010898298724670725
0.010881154889121284
0.010865167812408023
0.010850284115491021
0.010836451131312569
0.010823616904832118
0.010811730900164502
0.010800745024593538
0.010790614692974114
0.010781299573321877
0.010772763596149586
0.010764974092372879
0.010757900428850165
0.010751512774643611
0.01074578142001224
0.010740676659511287
0.010736169061894013
0.010732230033717791
0.010728832624757555
0.01072595233011526
0.010723567450234957
0.010721658728793606
0.010720208459410439
0.010719199580222948
0.010718615127002833
0.010718438000283532
0.010718650825520367
0.010719235921589326
0.010720175661987043
0.01072145335767515
0.010723054273882968
0.010724966075938484
0.010727178302056654
0.010729681163000705
0.010732464427843477
0.01073551698772732
0.01073882713085068
0.010742383146979827
0.010746173871531184
0.010750188995825914
0.010754419117336112
0.010758855530011888
0.010763489811875679
0.01076831341346523
0.010773317533128948
0.010778493423458657
0.010783832973021601
0.010789329193335495
0.010794976281153782
0.010800769168324852
0.010806702742264147
0.010812771091626006
0.010818967156844944
0.010825283019211875
0.010831710754217174
0.010838243432635942
0.010844875710041434
0.010851603656582295
0.010858423936109066
0.01086533282715704
0.010872325623718352
0.010879396671346412
0.010886539924006433
0.010893749685620504
0.010901021189899014
0.010908350791918655
0.010915735704971693
0.010923173382327836
0.010930660793278164
0.010938193915419715
0.010945767693823868
0.010953376508126283
0.010961014942900615
0.0109686785086517
0.010976363985405335
0.010984069238323908
0.010991792598130183
0.010999532100433635
0.011007284943210502
0.011015047406288057
0.011022815227347193
0.011030584186917481
0.011038350576937117
0.01104611136120042
0.011053864064888987
0.011061606566217096
0.01106933691611937
0.011077053170884948
0.011084753158716954
0.011092434189003016
0.011100092855579478
0.01110772511705683
0.011115326695220713
0.011122893619942625
0.011130422637712134
0.011137911276762969
0.011145357559843676
0.011152759528361164
0.011160114782175216
0.011167420155646606
0.011174671545286237
0.011181863882794378
0.011188991310655073
0.011196047634307862
0.011203026960748206
0.011209924159327216
0.011216734693663466
0.011223453691802936
0.011230074662994085
0.011236588565894693
0.011242983700557107
0.011249246300059381
0.011255361185142847
0.011261311838112862
0.01126707981493751
0.011272643961701998
0.01127797964882439
0.011283057521852135
0.011287841566816332
0.011292287570394894
0.011296342681351533
0.011299944089607841
0.01130301449552058
0.011305456420970176
0.011307148620427575
0.011307939644509338
0.011307628082523703
0.01130592787643506
0.011302417249183757
0.011296426121962232
0.011286726523371862
0.011270668522923587
0.011241501496429001
0.011211029783675764
0.40529843063398824
0.27734213534674207
0.20299489035325471
0.1590981478121671
0.13151653498887048
0.11298066791023949
0.09977706518085418
0.08992159889979479
0.08228930355944676
0.0762038567984176
0.07123704664092746
0.06710544946855636
0.06361421718914499
0.06062500440438827
0.0580369287136332
0.05577474212155831
0.05378113744559231
0.0520116299655413
0.050431140561995026
0.04901165913837403
0.04773055685737559
0.04656932797063189
0.04551266840291832
0.04454781119969119
0.04366402828687627
0.042852234883397254
0.0421046728909128
0.04141466570862624
0.04077643280678333
0.04018494789030694
0.039635825271786856
0.03912522255427966
0.038649754390391096
0.03820641982209976
0.037792546872345525
0.03740575091074093
0.03704389779824096
0.03670506747463688
0.036387522680798375
0.036089688576408305
0.03581014076672141
0.03554759296899223
0.035300879349721995
0.035068935084065896
0.034850781471183034
0.034645517145658604
0.03445231196187027
0.034270400707514824
0.03409907737599752
0.03393769158267939
0.033785645987284944
0.033642391637773536
0.03350742016791397
0.03338025563277461
0.03326044989869815
0.03314758259135584
0.03304126293462736
0.03294113013969966
0.032846851288552255
0.03275811777064661
0.032674641320553525
0.03259614987046004
0.032522383814059086
0.03245309440636449
0.03238804559113868
0.03232701798075374
0.0322698115071437
0.032216244056332034
0.0321661466233516
0.03211935799852373
0.032075721614246405
0.03203508501189618
0.03199730090371722
0.031962228905840176
0.031929737548593934
0.031899705985070546
0.03187202434935493
0.03184659210337774
0.03182331499672084
0.031802102182005035
0.031782864624178384
0.03176551478769187
0.03174996700450525
0.03173613829709779
0.03172394982231256
0.031713328667311906
0.031704208951654746
0.031696531274451004
0.03169024073628127
0.03168528484580935
0.03168161236061565
0.031679172857607844
0.03167791615592833
0.03167779148075777
0.03167874746149674
0.03168073400423137
0.03168370546984065
0.031687623029683885
0.03169245431057838
0.03169817040460065
0.03170474218539469
0.03171213803708711
0.031720323742230924
0.031729263869947864
0.03173892361483431
0.031749270410325686
0.031760274950151025
0.03177191125872011
0.03178415561715077
0.031796984765883295
0.031810374424770964
0.03182429911018727
0.031838733401434574
0.031853653857104265
0.03186904039840821
0.031884876306941465
0.0319011467098832
0.03191783618357519
0.03193492663993105
0.03195239669798004
0.03197022307523673
0.03198838336819117
0.03200685866294873
0.032025634470992555
0.03204469955552843
0.032064043508767945
0.03208365452897752
0.032103518453835855
0.032123619226291276
0.03214394027791725
0.03216446609353579
0.03218518332205327
0.03220608101289741
0.03222714985339588
0.03224838068729822
0.032269762980181506
0.0322912840035383
0.032312929191779166
0.03233468353057569
0.032356533301781135
0.03237846732902254
0.032400477115510355
0.0324225558131856
0.03244469655816311
0.03246689105349066
0.03248912914656233
0.03251139954912831
0.03253369113514191
0.032555993934477216
0.032578299273921654
0.03260059922729757
0.03262288601564865
0.0326451518504715
0.03266738913302869
0.03268959050463194
0.032711748393859076
0.032733854259325325
0.032755898127203094
0.03277786888206135
0.03279975521647535
0.03282154666591419
0.03284323413004623
0.03286480967224857
0.03288626583126514
0.03290759482491428
0.03292878782900857
0.03294983425770864
0.032970721016893516
0.03299143209777482
0.033011949156561346
0.033032253284684156
0.0330523270712821
0.033072155285498804
0.033091723069123766
0.03311101222826692
0.03312999765934999
0.03314864589366453
0.033166916158567414
0.03318476239576837
0.033202134052615184
0.03321897499336309
0.033235221795599415
0.03325080198044654
0.033265630243934086
0.033279601828597814
0.03329258700809789
0.033304429823139844
0.03331494478826566
0.03332390353167045
0.03333101840554773
0.03333593516338566
0.033338219707841746
0.033337306517472944
0.03333241177553597
0.03332243133455593
0.03330575003507609
0.033279776476340506
0.033239975880198405
0.03317786387894297
0.03311858346277308
0.45168802480063885
0.36088793965322885
0.29166381849725803
0.2420764540802067
0.20666262807997873
0.18083854714554615
0.16146747634829572
0.14651890113517474
0.1346832810599903
0.12510137033832325
0.11719518156545483
0.11056543309169127
0.10492899701954701
0.10008016597470129
0.09586622839923603
0.09217165668222457
0.08890751336447705
0.08600418719174273
0.08340639164153144
0.08106968749726665
0.07895797376144398
0.07704160652744095
0.07529598652843776
0.07370051885692823
0.07223783970698366
0.07089321305507548
0.06965404164460319
0.06850947384866068
0.06745009861018889
0.06646771389340218
0.06555514622569454
0.06470609914508112
0.06391501884359523
0.06317697904765569
0.06248759136929576
0.06184293801985531
0.06123951369637517
0.060674167185899845
0.06014404713964485
0.059646562865310775
0.05917936186004127
0.058740313276449636
0.058327486153444644
0.057939122151193394
0.05757361052640264
0.05722947013717967
0.05690533606581031
0.05659994708256862
0.05631213473896744
0.05604081733695769
0.0557849982596832
0.05554376319262488
0.055316271481437085
0.05510174296502831
0.05489944628089073
0.05470869306946625
0.05452883724100293
0.05435927550558784
0.05419944679465131
0.0540488306583877
0.05390694478591396
0.05377334053947569
0.05364759615314684
0.053529310181211064
0.05341809911807789
0.05331360023409897
0.05321547607714022
0.05312341570744206
0.05303713100485292
0.05295635067572743
0.05288081566359945
0.05281027738247771
0.05274449780363562
0.052683250212320135
0.052626320423693654
0.05257350831928911
0.05252462862479404
0.05247950964516005
0.0524379900768298
0.052399915634160174
0.052365137191623716
0.052333510578127955
0.052304896987874556
0.05227916338592185
0.0522561832787338
0.052235838100426125
0.052218018278413776
0.05220262258672633
0.052189555743540464
0.052178726017290684
0.05217004460508473
0.05216342647948835
0.05215879061697115
0.05215605827456526
0.052155150603332374
0.05215598837376717
0.05215849502744958
0.05216260110697232
0.052168246597821086
0.05217537934038339
0.05218395071400372
0.05219391139218129
0.05220520913203586
0.05221778876233322
0.052231593603793494
0.052246567708404835
0.052262658471084904
0.052279818758192785
0.052298007376947314
0.05231718735014991
0.05233732284365247
0.05235837654959248
0.05238030902307114
0.05240308020785772
0.052426652127297406
0.05245099114214162
0.052476068402470814
0.052501858003378525
0.0525283336297269
0.05255546555323805
0.0525832199047537
0.05261156085138172
0.05264045441722417
0.05266987161333837
0.05269978912104394
0.052730187468447834
0.05276104808396063
0.05279235087030921
0.052824073205369165
0.05285619037781766
0.05288867697381696
0.05292150859785951
0.05295466327017573
0.0529881218795672
0.053021867382949214
0.053055883054782114
0.05309015066924228
0.05312464961930676
0.05315935750706064
0.0531942519447245
0.05322931263406915
0.053264522598607
0.053299867852034936
0.053335335645511156
0.05337091231131248
0.053406582037227854
0.05344232733046776
0.0534781307533133
0.05351397659080645
0.05354985121410534
0.0535857419898759
0.05362163574719173
0.05365751805723586
0.05369337374785138
0.053729187972933315
0.05376494677577166
0.053800636676933716
0.05383624373388233
0.05387175290750553
0.05390714817112712
0.053942413095267774
0.05397753131723618
0.05401248659292242
0.054047262657005046
0.054081843291179335
0.054116212563777015
0.054150354564040916
0.05418425192872572
0.05421788346180803
0.05425122245459867
0.05428423743892763
0.05431689537992896
0.05434916499822759
0.05438101721386168
0.05441242153660078
0.05444334022158121
0.054473723699534675
0.05450350957040457
0.05453262411040226
0.05456098313009413
0.054588490861766745
0.05461503872717486
0.05464050447580305
0.05466474758794347
0.05468759884984342
0.054708851033769164
0.05472825648842524
0.054745521112096476
0.05476028150986071
0.05477207830612059
0.05478034678911188
0.05478440173944386
0.054783369600045574
0.05477608231986295
0.05476097583586443
0.05473591587355625
0.054697803235569234
0.05464192504171326
0.054561141064521396
0.05448754903550235
0.4709367201041637
0.40800640339854344
0.35163679783608054
0.3053825934883584
0.2687273818792055
0.23988713835188766
0.2170451583608003
0.19872199190828413
0.18380498801778167
0.17148044382231453
0.16115621886039713
0.15239873651548053
0.14488675621106792
0.13837889161489633
0.13269117671432207
0.1276815030513276
0.12323861163287186
0.11927422010070242
0.11571742039866724
0.11251067770118102
0.10960687692373525
0.10696706359745277
0.10455871856378396
0.10235447269464211
0.10033114618058693
0.09846899332598143
0.09675108082386477
0.09516278004595342
0.09369137122541873
0.09232574396654145
0.09105616208289069
0.08987406173549933
0.08877187072333077
0.08774285635343457
0.08678101081442721
0.08588096638290471
0.08503791948887637
0.08424755090828512
0.08350595031553701
0.08280956157739068
0.08215515121321301
0.08153978498565713
0.08096079798165479
0.08041575890013848
0.07990243906851204
0.07941879098075222
0.07896293103788467
0.0785331209519663
0.07812775035169738
0.0777453266900844
0.07738447220333476
0.07704391997630818
0.07672250239534732
0.07641913412932619
0.07613279784348155
0.07586253783514262
0.07560745938894607
0.07536672852084036
0.07513956978598482
0.0749252632176084
0.07472314067691505
0.07453257954837623
0.07435299306483927
0.07418382125473762
0.07402452840280138
0.07387460826493857
0.0737335913263785
0.0736010466444514
0.07347657604928065
0.07335980489045951
0.07325037489798068
0.07314794121725697
0.0730521722790113
0.07296275100760033
0.07287937719275767
0.07280177061034314
0.07272967286882932
0.07266284578861545
0.07260106651353217
0.07254412212187797
0.07249180640914255
0.07244391914331788
0.07240026643772127
0.07236066156039155
0.07232492677290994
0.07229289621575224
0.07226441787844819
0.07223935227629366
0.07221756803098113
0.07219893762605469
0.07218333647225979
0.07217064483258061
0.0721607490619213
0.07215353965909659
0.07214890775851082
0.07214674419743654
0.0721469431936836
0.0721494081059833
0.07215405453966149
0.07216080833962575
0.07216960018510293
0.07218036047671696
0.072193016807408
0.07220749386023381
0.07222371465174521
0.07224160266065348
0.07226108475684616
0.07228209409425178
0.07230457134098062
0.07232846320362075
0.07235371897108527
0.07238028718037631
0.07240811433603413
0.07243714621924974
0.07246733082297818
0.07249862111282432
0.07253097582850687
0.07256435744462027
0.07259872806358973
0.07263404561568061
0.07267026298539365
0.07270733096099381
0.07274520327490652
0.07278384053636568
0.07282321074584311
0.07286328649876134
0.07290404093849272
0.07294544472404782
0.0729874651079525
0.0730300669333803
0.07307321474614355
0.07311687513791067
0.07316101845675181
0.07320561910401455
0.07325065407538525
0.07329610024654121
0.07334193169673683
0.07338811852114656
0.07343462791446949
0.07348142715458429
0.07352848707329283
0.0735757842041793
0.0736233003319969
0.07367101952209391
0.07371892423607138
0.07376699283837695
0.07381519998823041
0.07386351947166778
0.07391192735779653
0.07396040330498117
0.07400892944733582
0.07405748817499289
0.07410606069338184
0.07415462717040172
0.07420316771693561
0.07425166286513032
0.07430009299166303
0.07434843733858867
0.0743966736940633
0.07444477909675193
0.07449273089790209
0.07454050717815922
0.07458808618729969
0.07463544550704136
0.07468256197195142
0.07472941249359881
0.07477597451422036
0.07482222446182091
0.07486813421104424
0.07491366796102647
0.07495878251289843
0.07500343146515366
0.07504757024745273
0.07509115748544978
0.07513415050009736
0.07517649729138899
0.07521813039150958
0.0752589660005649
0.07529890591765191
0.07533783706330528
0.07537562847321114
0.07541213057811123
0.0754471756303603
0.07548057006454682
0.07551207885269783
0.07554141791741206
0.07556825788515774
0.07559221207561102
0.07561279658951686
0.07562940201863326
0.07564129738887293
0.07564760250876096
0.07564719357082438
0.07563862691184395
0.0756200943093586
0.07558922456404188
0.07554287627762324
0.07547677982406062
0.07538526182575195
0.07530410814220337
0.4807153223555489
0.4362068897120493
0.392218641365458
0.35248652854863305
0.3183020646211268
0.28956512621428593
0.26559947108970516
0.2455977127022064
0.22881285503957915
0.21461834123764503
0.20251119885873692
0.19209516675854493
0.18305972529316936
0.17516113405322464
0.16820711132714208
0.1620449415101268
0.1565523161484239
0.15163035814686263
0.14719841684917379
0.1431902013033717
0.1395508243114165
0.13623447312581818
0.13320258841305116
0.13042248474768756
0.12786630689984335
0.12551019765095608
0.12333359955338781
0.12131867593276213
0.11944985802446222
0.11771350339264292
0.11609762477741091
0.11459165074321942
0.11318620781869683
0.11187293892026141
0.11064437004399176
0.10949381248174075
0.1084152721155524
0.10740335123127004
0.10645315584472029
0.10556022970969882
0.10472051657912136
0.10393033098709716
0.10318632046915556
0.10248542197337808
0.10182482562611127
0.10120194986665974
0.100614419690955
0.10006004169087686
0.09953678106655707
0.09904274935290928
0.09857620183589923
0.09813553343623428
0.09771926436120183
0.09732601885677401
0.09695450765782732
0.09660352005415435
0.09627192223063753
0.09595865569995617
0.09566273417312617
0.09538324078370437
0.09511932513600323
0.09487019612998064
0.09463510914070011
0.09441335337294715
0.09420424791420667
0.0940071483704449
0.09382145642554197
0.09364662247391077
0.09348213854691548
0.09332752699096275
0.09318233176860923
0.09304611460504408
0.09291845421745103
0.09279894717273042
0.09268721067099245
0.09258288680730861
0.09248564538852606
0.09239518218475787
0.09231121284326244
0.0922334660861497
0.09216167952969678
0.09209559835933812
0.09203497525746515
0.09197957119404572
0.09192915821881638
0.09188352404781566
0.09184247517957256
0.09180583491307363
0.09177343670556896
0.09174511786512955
0.09172071827378672
0.09170008354386928
0.09168306747320294
0.09166953002354368
0.09165933277007278
0.0916523373241949
0.09164840956222842
0.09164742654375457
0.0916492801796526
0.09165387469419023
0.09166112017088165
0.09167092671264057
0.09168320172982099
0.09169784982008099
0.09171477386222898
0.09173387705197145
0.0917550661550988
0.09177825513982146
0.09180336711244787
0.09183033302352236
0.09185908774265937
0.09188956588165531
0.09192169975953662
0.0919554204600616
0.09199066120020913
0.0920273609955252
0.09206546622503041
0.09210492855236314
0.09214569982015237
0.09218772689986458
0.09223095008894168
0.09227530650995151
0.09232073646717016
0.09236718866489231
0.09241462122228317
0.0924629984722125
0.09251228602076934
0.09256244684316353
0.09261343980217226
0.09266522047528382
0.09271774348623046
0.09277096540849471
0.09282484719816561
0.09287935505163439
0.09293445902346917
0.09299012979138233
0.0930463350621554
0.09310303751522125
0.09316019555606356
0.09321776678553124
0.09327571262468409
0.0933340016897575
0.09339260988402708
0.0934515168725253
0.09351070084958987
0.09357013478672008
0.0936297864818125
0.0936896220952818
0.09374961041414148
0.09380972482075646
0.09386994203967991
0.09393023931402467
0.09399059250625451
0.09405097622622849
0.09411136502309751
0.09417173392023322
0.09423205762265917
0.09429230930372683
0.09435246035807114
0.09441248150575848
0.09447234421969972
0.09453202103113359
0.09459148431532953
0.09465070477908445
0.09470965144009001
0.09476829345399108
0.09482660172511811
0.0948845474441443
0.09494209711164471
0.09499920738776287
0.09505582431175855
0.09511188827424215
0.0951673410736102
0.09522212879256195
0.09527619674531382
0.09532947929452955
0.09538189231910821
0.09543333288427185
0.09548368124888168
0.0955327979154638
0.09558051866790498
0.09562665605823839
0.09567100178899793
0.09571331418797609
0.09575329709394506
0.09579059769440276
0.09582481746192904