# vtk DataFile Version 3.0
jCFD simulation data
ASCII
DATASET UNSTRUCTURED_GRID
POINTS 8241 double
0.0 0.0 0.0
0.5 0.0 0.0
0.0 0.1 0.0
0.5 0.1 0.0
0.0025 0.0 0.0
0.005 0.0 0.0
0.0075 0.0 0.0
0.01 0.0 0.0
0.0125 0.0 0.0
0.015 0.0 0.0
0.0175 0.0 0.0
0.02 0.0 0.0
0.0225 0.0 0.0
0.025 0.0 0.0
0.0275 0.0 0.0
0.03 0.0 0.0
0.0325 0.0 0.0
0.035 0.0 0.0
0.0375 0.0 0.0
0.04 0.0 0.0
0.0425 0.0 0.0
0.045 0.0 0.0
0.0475 0.0 0.0
0.05 0.0 0.0
0.0525 0.0 0.0
0.055 0.0 0.0
0.0575 0.0 0.0
0.06 0.0 0.0
0.0625 0.0 0.0
0.065 0.0 0.0
0.0675 0.0 0.0
0.07 0.0 0.0
0.0725 0.0 0.0
0.075 0.0 0.0
0.0775 0.0 0.0
0.08 0.0 0.0
0.0825 0.0 0.0
0.085 0.0 0.0
0.08750000000000001 0.0 0.0
0.09 0.0 0.0
0.0925 0.0 0.0
0.095 0.0 0.0
0.0975 0.0 0.0
0.1 0.0 0.0
0.10250000000000001 0.0 0.0
0.105 0.0 0.0
0.1075 0.0 0.0
0.11 0.0 0.0
0.1125 0.0 0.0
0.115 0.0 0.0
0.11750000000000001 0.0 0.0
0.12 0.0 0.0
0.1225 0.0 0.0
0.125 0.0 0.0
0.1275 0.0 0.0
0.13 0.0 0.0
0.1325 0.0 0.0
0.135 0.0 0.0
0.1375 0.0 0.0
0.14 0.0 0.0
0.14250000000000002 0.0 0.0
0.145 0.0 0.0
0.1475 0.0 0.0
0.15 0.0 0.0
0.1525 0.0 0.0
0.155 0.0 0.0
0.1575 0.0 0.0
0.16 0.0 0.0
0.1625 0.0 0.0
0.165 0.0 0.0
0.1675 0.0 0.0
0.17 0.0 0.0
0.17250000000000001 0.0 0.0
0.17500000000000002 0.0 0.0
0.1775 0.0 0.0
0.18 0.0 0.0
0.1825 0.0 0.0
0.185 0.0 0.0
0.1875 0.0 0.0
0.19 0.0 0.0
0.1925 0.0 0.0
0.195 0.0 0.0
0.1975 0.0 0.0
0.2 0.0 0.0
0.2025 0.0 0.0
0.20500000000000002 0.0 0.0
0.20750000000000002 0.0 0.0
0.21 0.0 0.0
0.2125 0.0 0.0
0.215 0.0 0.0
0.2175 0.0 0.0
0.22 0.0 0.0
0.2225 0.0 0.0
0.225 0.0 0.0
0.2275 0.0 0.0
0.23 0.0 0.0
0.2325 0.0 0.0
0.23500000000000001 0.0 0.0
0.23750000000000002 0.0 0.0
0.24 0.0 0.0
0.2425 0.0 0.0
0.245 0.0 0.0
0.2475 0.0 0.0
0.25 0.0 0.0
0.2525 0.0 0.0
0.255 0.0 0.0
0.2575 0.0 0.0
0.26 0.0 0.0
0.2625 0.0 0.0
0.265 0.0 0.0
0.2675 0.0 0.0
0.27 0.0 0.0
0.2725 0.0 0.0
0.275 0.0 0.0
0.2775 0.0 0.0
0.28 0.0 0.0
0.28250000000000003 0.0 0.0
0.28500000000000003 0.0 0.0
0.28750000000000003 0.0 0.0
0.29 0.0 0.0
0.2925 0.0 0.0
0.295 0.0 0.0
0.2975 0.0 0.0
0.3 0.0 0.0
0.3025 0.0 0.0
0.305 0.0 0.0
0.3075 0.0 0.0
0.31 0.0 0.0
0.3125 0.0 0.0
0.315 0.0 0.0
0.3175 0.0 0.0
0.32 0.0 0.0
0.3225 0.0 0.0
0.325 0.0 0.0
0.3275 0.0 0.0
0.33 0.0 0.0
0.3325 0.0 0.0
0.335 0.0 0.0
0.3375 0.0 0.0
0.34 0.0 0.0
0.3425 0.0 0.0
0.34500000000000003 0.0 0.0
0.34750000000000003 0.0 0.0
0.35000000000000003 0.0 0.0
0.3525 0.0 0.0
0.355 0.0 0.0
0.3575 0.0 0.0
0.36 0.0 0.0
0.3625 0.0 0.0
0.365 0.0 0.0
0.3675 0.0 0.0
0.37 0.0 0.0
0.3725 0.0 0.0
0.375 0.0 0.0
0.3775 0.0 0.0
0.38 0.0 0.0
0.3825 0.0 0.0
0.385 0.0 0.0
0.3875 0.0 0.0
0.39 0.0 0.0
0.3925 0.0 0.0
0.395 0.0 0.0
0.3975 0.0 0.0
0.4 0.0 0.0
0.4025 0.0 0.0
0.405 0.0 0.0
0.40750000000000003 0.0 0.0
0.41000000000000003 0.0 0.0
0.41250000000000003 0.0 0.0
0.41500000000000004 0.0 0.0
0.4175 0.0 0.0
0.42 0.0 0.0
0.4225 0.0 0.0
0.425 0.0 0.0
0.4275 0.0 0.0
0.43 0.0 0.0
0.4325 0.0 0.0
0.435 0.0 0.0
0.4375 0.0 0.0
0.44 0.0 0.0
0.4425 0.0 0.0
0.445 0.0 0.0
0.4475 0.0 0.0
0.45 0.0 0.0
0.4525 0.0 0.0
0.455 0.0 0.0
0.4575 0.0 0.0
0.46 0.0 0.0
0.4625 0.0 0.0
0.465 0.0 0.0
0.4675 0.0 0.0
0.47000000000000003 0.0 0.0
0.47250000000000003 0.0 0.0
0.47500000000000003 0.0 0.0
0.47750000000000004 0.0 0.0
0.48 0.0 0.0
0.4825 0.0 0.0
0.485 0.0 0.0
0.4875 0.0 0.0
0.49 0.0 0.0
0.4925 0.0 0.0
0.495 0.0 0.0
0.4975 0.0 0.0
0.0025 0.1 0.0
0.005 0.1 0.0
0.0075 0.1 0.0
0.01 0.1 0.0
0.0125 0.1 0.0
0.015 0.1 0.0
0.0175 0.1 0.0
0.02 0.1 0.0
0.0225 0.1 0.0
0.025 0.1 0.0
0.0275 0.1 0.0
0.03 0.1 0.0
0.0325 0.1 0.0
0.035 0.1 0.0
0.0375 0.1 0.0
0.04 0.1 0.0
0.0425 0.1 0.0
0.045 0.1 0.0
0.0475 0.1 0.0
0.05 0.1 0.0
0.0525 0.1 0.0
0.055 0.1 0.0
0.0575 0.1 0.0
0.06 0.1 0.0
0.0625 0.1 0.0
0.065 0.1 0.0
0.0675 0.1 0.0
0.07 0.1 0.0
0.0725 0.1 0.0
0.075 0.1 0.0
0.0775 0.1 0.0
0.08 0.1 0.0
0.0825 0.1 0.0
0.085 0.1 0.0
0.08750000000000001 0.1 0.0
0.09 0.1 0.0
0.0925 0.1 0.0
0.095 0.1 0.0
0.0975 0.1 0.0
0.1 0.1 0.0
0.10250000000000001 0.1 0.0
0.105 0.1 0.0
0.1075 0.1 0.0
0.11 0.1 0.0
0.1125 0.1 0.0
0.115 0.1 0.0
0.11750000000000001 0.1 0.0
0.12 0.1 0.0
0.1225 0.1 0.0
0.125 0.1 0.0
0.1275 0.1 0.0
0.13 0.1 0.0
0.1325 0.1 0.0
0.135 0.1 0.0
0.1375 0.1 0.0
0.14 0.1 0.0
0.14250000000000002 0.1 0.0
0.145 0.1 0.0
0.1475 0.1 0.0
0.15 0.1 0.0
0.1525 0.1 0.0
0.155 0.1 0.0
0.1575 0.1 0.0
0.16 0.1 0.0
0.1625 0.1 0.0
0.165 0.1 0.0
0.1675 0.1 0.0
0.17 0.1 0.0
0.17250000000000001 0.1 0.0
0.17500000000000002 0.1 0.0
0.1775 0.1 0.0
0.18 0.1 0.0
0.1825 0.1 0.0
0.185 0.1 0.0
0.1875 0.1 0.0
0.19 0.1 0.0
0.1925 0.1 0.0
0.195 0.1 0.0
0.1975 0.1 0.0
0.2 0.1 0.0
0.2025 0.1 0.0
0.20500000000000002 0.1 0.0
0.20750000000000002 0.1 0.0
0.21 0.1 0.0
0.2125 0.1 0.0
0.215 0.1 0.0
0.2175 0.1 0.0
0.22 0.1 0.0
0.2225 0.1 0.0
0.225 0.1 0.0
0.2275 0.1 0.0
0.23 0.1 0.0
0.2325 0.1 0.0
0.23500000000000001 0.1 0.0
0.23750000000000002 0.1 0.0
0.24 0.1 0.0
0.2425 0.1 0.0
0.245 0.1 0.0
0.2475 0.1 0.0
0.25 0.1 0.0
0.2525 0.1 0.0
0.255 0.1 0.0
0.2575 0.1 0.0
0.26 0.1 0.0
0.2625 0.1 0.0
0.265 0.1 0.0
0.2675 0.1 0.0
0.27 0.1 0.0
0.2725 0.1 0.0
0.275 0.1 0.0
0.2775 0.1 0.0
0.28 0.1 0.0
0.28250000000000003 0.1 0.0
0.28500000000000003 0.1 0.0
0.28750000000000003 0.1 0.0
0.29 0.1 0.0
0.2925 0.1 0.0
0.295 0.1 0.0
0.2975 0.1 0.0
0.3 0.1 0.0
0.3025 0.1 0.0
0.305 0.1 0.0
0.3075 0.1 0.0
0.31 0.1 0.0
0.3125 0.1 0.0
0.315 0.1 0.0
0.3175 0.1 0.0
0.32 0.1 0.0
0.3225 0.1 0.0
0.325 0.1 0.0
0.3275 0.1 0.0
0.33 0.1 0.0
0.3325 0.1 0.0
0.335 0.1 0.0
0.3375 0.1 0.0
0.34 0.1 0.0
0.3425 0.1 0.0
0.34500000000000003 0.1 0.0
0.34750000000000003 0.1 0.0
0.35000000000000003 0.1 0.0
0.3525 0.1 0.0
0.355 0.1 0.0
0.3575 0.1 0.0
0.36 0.1 0.0
0.3625 0.1 0.0
0.365 0.1 0.0
0.3675 0.1 0.0
0.37 0.1 0.0
0.3725 0.1 0.0
0.375 0.1 0.0
0.3775 0.1 0.0
0.38 0.1 0.0
0.3825 0.1 0.0
0.385 0.1 0.0
0.3875 0.1 0.0
0.39 0.1 0.0
0.3925 0.1 0.0
0.395 0.1 0.0
0.3975 0.1 0.0
0.4 0.1 0.0
0.4025 0.1 0.0
0.405 0.1 0.0
0.40750000000000003 0.1 0.0
0.41000000000000003 0.1 0.0
0.41250000000000003 0.1 0.0
0.41500000000000004 0.1 0.0
0.4175 0.1 0.0
0.42 0.1 0.0
0.4225 0.1 0.0
0.425 0.1 0.0
0.4275 0.1 0.0
0.43 0.1 0.0
0.4325 0.1 0.0
0.435 0.1 0.0
0.4375 0.1 0.0
0.44 0.1 0.0
0.4425 0.1 0.0
0.445 0.1 0.0
0.4475 0.1 0.0
0.45 0.1 0.0
0.4525 0.1 0.0
0.455 0.1 0.0
0.4575 0.1 0.0
0.46 0.1 0.0
0.4625 0.1 0.0
0.465 0.1 0.0
0.4675 0.1 0.0
0.47000000000000003 0.1 0.0
0.47250000000000003 0.1 0.0
0.47500000000000003 0.1 0.0
0.47750000000000004 0.1 0.0
0.48 0.1 0.0
0.4825 0.1 0.0
0.485 0.1 0.0
0.4875 0.1 0.0
0.49 0.1 0.0
0.4925 0.1 0.0
0.495 0.1 0.0
0.4975 0.1 0.0
0.0 0.0025 0.0
0.0 0.005 0.0
0.0 0.0075 0.0
0.0 0.01 0.0
0.0 0.0125 0.0
0.0 0.015 0.0
0.0 0.0175 0.0
0.0 0.02 0.0
0.0 0.0225 0.0
0.0 0.025 0.0
0.0 0.0275 0.0
0.0 0.03 0.0
0.0 0.0325 0.0
0.0 0.035 0.0
0.0 0.0375 0.0
0.0 0.04 0.0
0.0 0.0425 0.0
0.0 0.045 0.0
0.0 0.0475 0.0
0.0 0.05 0.0
0.0 0.0525 0.0
0.0 0.055 0.0
0.0 0.0575 0.0
0.0 0.06 0.0
0.0 0.0625 0.0
0.0 0.065 0.0
0.0 0.0675 0.0
0.0 0.07 0.0
0.0 0.0725 0.0
0.0 0.075 0.0
0.0 0.0775 0.0
0.0 0.08 0.0
0.0 0.0825 0.0
0.0 0.085 0.0
0.0 0.08750000000000001 0.0
0.0 0.09 0.0
0.0 0.0925 0.0
0.0 0.095 0.0
0.0 0.0975 0.0
0.5 0.0025 0.0
0.5 0.005 0.0
0.5 0.0075 0.0
0.5 0.01 0.0
0.5 0.0125 0.0
0.5 0.015 0.0
0.5 0.0175 0.0
0.5 0.02 0.0
0.5 0.0225 0.0
0.5 0.025 0.0
0.5 0.0275 0.0
0.5 0.03 0.0
0.5 0.0325 0.0
0.5 0.035 0.0
0.5 0.0375 0.0
0.5 0.04 0.0
0.5 0.0425 0.0
0.5 0.045 0.0
0.5 0.0475 0.0
0.5 0.05 0.0
0.5 0.0525 0.0
0.5 0.055 0.0
0.5 0.0575 0.0
0.5 0.06 0.0
0.5 0.0625 0.0
0.5 0.065 0.0
0.5 0.0675 0.0
0.5 0.07 0.0
0.5 0.0725 0.0
0.5 0.075 0.0
0.5 0.0775 0.0
0.5 0.08 0.0
0.5 0.0825 0.0
0.5 0.085 0.0
0.5 0.08750000000000001 0.0
0.5 0.09 0.0
0.5 0.0925 0.0
0.5 0.095 0.0
0.5 0.0975 0.0
0.0025 0.0025 0.0
0.005 0.0025 0.0
0.0075 0.0025 0.0
0.01 0.0025 0.0
0.0125 0.0025 0.0
0.015 0.0025 0.0
0.0175 0.0025 0.0
0.02 0.0025 0.0
0.0225 0.0025 0.0
0.025 0.0025 0.0
0.0275 0.0025 0.0
0.03 0.0025 0.0
0.0325 0.0025 0.0
0.035 0.0025 0.0
0.0375 0.0025 0.0
0.04 0.0025 0.0
0.0425 0.0025 0.0
0.045 0.0025 0.0
0.0475 0.0025 0.0
0.05 0.0025 0.0
0.0525 0.0025 0.0
0.055 0.0025 0.0
0.0575 0.0025 0.0
0.06 0.0025 0.0
0.0625 0.0025 0.0
0.065 0.0025 0.0
0.0675 0.0025 0.0
0.07 0.0025 0.0
0.0725 0.0025 0.0
0.075 0.0025 0.0
0.0775 0.0025 0.0
0.08 0.0025 0.0
0.0825 0.0025 0.0
0.085 0.0025 0.0
0.08750000000000001 0.0025 0.0
0.09 0.0025 0.0
0.0925 0.0025 0.0
0.095 0.0025 0.0
0.0975 0.0025 0.0
0.1 0.0025 0.0
0.10250000000000001 0.0025 0.0
0.105 0.0025 0.0
0.1075 0.0025 0.0
0.11 0.0025 0.0
0.1125 0.0025 0.0
0.115 0.0025 0.0
0.11750000000000001 0.0025 0.0
0.12 0.0025 0.0
0.1225 0.0025 0.0
0.125 0.0025 0.0
0.1275 0.0025 0.0
0.13 0.0025 0.0
0.1325 0.0025 0.0
0.135 0.0025 0.0
0.1375 0.0025 0.0
0.14 0.0025 0.0
0.14250000000000002 0.0025 0.0
0.145 0.0025 0.0
0.1475 0.0025 0.0
0.15 0.0025 0.0
0.1525 0.0025 0.0
0.155 0.0025 0.0
0.1575 0.0025 0.0
0.16 0.0025 0.0
0.1625 0.0025 0.0
0.165 0.0025 0.0
0.1675 0.0025 0.0
0.17 0.0025 0.0
0.17250000000000001 0.0025 0.0
0.17500000000000002 0.0025 0.0
0.1775 0.0025 0.0
0.18 0.0025 0.0
0.1825 0.0025 0.0
0.185 0.0025 0.0
0.1875 0.0025 0.0
0.19 0.0025 0.0
0.1925 0.0025 0.0
0.195 0.0025 0.0
0.1975 0.0025 0.0
0.2 0.0025 0.0
0.2025 0.0025 0.0
0.20500000000000002 0.0025 0.0
0.20750000000000002 0.0025 0.0
0.21 0.0025 0.0
0.2125 0.0025 0.0
0.215 0.0025 0.0
0.2175 0.0025 0.0
0.22 0.0025 0.0
0.2225 0.0025 0.0
0.225 0.0025 0.0
0.2275 0.0025 0.0
0.23 0.0025 0.0
0.2325 0.0025 0.0
0.23500000000000001 0.0025 0.0
0.23750000000000002 0.0025 0.0
0.24 0.0025 0.0
0.2425 0.0025 0.0
0.245 0.0025 0.0
0.2475 0.0025 0.0
0.25 0.0025 0.0
0.2525 0.0025 0.0
0.255 0.0025 0.0
0.2575 0.0025 0.0
0.26 0.0025 0.0
0.2625 0.0025 0.0
0.265 0.0025 0.0
0.2675 0.0025 0.0
0.27 0.0025 0.0
0.2725 0.0025 0.0
0.275 0.0025 0.0
0.2775 0.0025 0.0
0.28 0.0025 0.0
0.28250000000000003 0.0025 0.0
0.28500000000000003 0.0025 0.0
0.28750000000000003 0.0025 0.0
0.29 0.0025 0.0
0.2925 0.0025 0.0
0.295 0.0025 0.0
0.2975 0.0025 0.0
0.3 0.0025 0.0
0.3025 0.0025 0.0
0.305 0.0025 0.0
0.3075 0.0025 0.0
0.31 0.0025 0.0
0.3125 0.0025 0.0
0.315 0.0025 0.0
0.3175 0.0025 0.0
0.32 0.0025 0.0
0.3225 0.0025 0.0
[...]
CELL_DATA 8000
SCALARS phi float 1
LOOKUP_TABLE CellColors
1.4761232350550035
1.1710842957633947
0.988413203281286
0.8697174366029466
0.7932784418285308
0.7440283563901677
0.7111277345015075
0.6878565146251802
0.670332553006086
0.6563696806202574
0.6447288430798461
0.6346841360168376
0.6257883075909869
0.6177500208863765
0.6103696070190845
0.6035044948979228
0.5970496867993844
0.5909260641142541
0.5850729671654464
0.5794432512645573
0.5739998660529403
0.5687134208891811
0.5635604145315106
0.5585219255059372
0.5535826289670668
0.5487300490425303
0.5439539835400208
0.5392460565054522
0.5345993668246716
0.5300082098401817
0.5254678551023552
0.5209743677309728
0.5165244639908844
0.5121153939444532
0.5077448457107011
0.5034108670897014
0.49911180122915466
0.49484623371252945
0.4906129489848222
0.48641089443691415
0.4822391507965238
0.4780969077306055
0.4739834437587316
0.4698981097420473
0.46584031533860953
0.4618095179188963
0.45780521352817777
0.4538269295496218
0.4498742187743144
0.4459466546378889
0.44204382742610654
0.4381653412788026
0.43431081184736964
0.4304798644883956
0.4266721328961266
0.422887258089471
0.4191248876832147
0.41538467538795454
0.4116662806932119
0.40796936869384526
0.4042936100261234
0.40063868088656396
0.3970042631105071
0.3933900442890306
0.3897957179057012
0.3862209834792856
0.3826655467025286
0.3791291195693073
0.3756114204841258
0.372112174349953
0.36863111263184156
0.36516797339366136
0.36172250130462724
0.35829444761281215
0.35488357008455584
0.3514896329101178
0.3481124065760464
0.34475166770391935
0.3414071988543804
0.3380787882954562
0.33476622973534287
0.3314693220222843
0.32818786881738427
0.324921678248838
0.3216705625562432
0.3184343377303057
0.31521282314745663
0.31200584119373903
0.30881321687119434
0.30563477738445427
0.3024703517137391
0.29931977018874983
0.29618286408113054
0.2930594652285045
0.28994940569186445
0.2868525174357843
0.2837686320145738
0.28069758025172936
0.2776391919136209
0.2745932953939513
0.2715597174334321
0.2685382828932694
0.2655288145836421
0.2625311331295035
0.25954505684792356
0.25657040161988404
0.2536069807600417
0.25065460490694375
0.24771308196027247
0.24478221707743703
0.24186181271876908
0.2389516687149534
0.23605158233345064
0.23316134834012703
0.23028075907331397
0.22740960455377882
0.22454767264070039
0.22169474922155774
0.21885061841135434
0.21601506274465626
0.2131878633658436
0.21036880023932053
0.20755765239663196
0.20475419821462273
0.20195821569841363
0.19916948274515356
0.19638777738935445
0.19361287805607533
0.19084456384902346
0.18808261487300473
0.18532681255808942
0.1825769399477575
0.17983278194339553
0.1770941255368571
0.17436076007310825
0.17163247755313954
0.16890907294171373
0.16619034443042172
0.16347609364041563
0.16076612579856175
0.15806024993494416
0.15535827911372496
0.15266003066205264
0.1499653263539981
0.1472739925447
0.14458586028791065
0.1419007654624225
0.13921854888970814
0.136539056404516
0.13386213887757561
0.1311876522438831
0.12851545758304528
0.1258454212198958
0.12317741475799729
0.12051131500999533
0.11784700389142658
0.11518436836214754
0.11252330040994477
0.1098636970038538
0.10720545998927986
0.10454849597634884
0.10189271626779159
0.09923803678740911
0.09658437792683223
0.09393166431677191
0.09127982464965834
0.08862879162055139
0.0859785018486538
0.08332889563504768
0.08067991667724439
0.07803151195746533
0.07538363171279872
0.07273622917174884
0.07008926010553092
0.06744268268382272
0.06479645765208747
0.06215054802018747
0.05950491813962745
0.05685953354785442
0.0542143618829536
0.05156937264441616
0.04892453529674476
0.046279818806961893
0.043635192762564896
0.040990626746626034
0.03834608917207632
0.03570154745754466
0.033056966994607126
0.030412310095776184
0.027767536287678054
0.02512259934201801
0.022477449778314045
0.019832023604747385
0.0171862698507177
0.01454001387006185
0.011893431419978728
0.009244586393554317
0.0066004934956618595
0.003907735888408868
0.0012799802971045346
1.19766804990662
1.0683133322816598
0.95902514503359
0.8725241114975689
0.8083478116130414
0.7618201347941209
0.7277442893087707
0.7021142253963611
0.6821906907695372
0.6661697639778184
0.652871935717224
0.6415198045024683
0.6315921304209628
0.6227315727227658
0.6146871985223794
0.6072786113633268
0.6003732943905349
0.5938720228534757
0.5876992550106737
0.5817966495155187
0.5761185899419321
0.5706290281187378
0.5652992141300216
0.5601060352817298
0.5550307814591019
0.550058214348977
0.5451758566900242
0.5403734431978369
0.535642491923738
0.5309759664708995
0.5263680075672422
0.5218137181626242
0.5173089902594274
0.5128503645808462
0.508434916293328
0.5040601615611835
0.4997239808745342
0.4954245559613757
0.491160317766158
0.48692990347770077
0.48273212099207674
0.4785659195090146
0.4744303651956226
0.47032462105107364
0.4662479302587091
0.46219960243210645
0.45817900227294384
0.45418554024126306
0.45021866489728984
0.44627785663286135
0.4423626225621665
0.4384724923763183
0.4346070149954111
0.4307657558799679
0.426948294886354
0.4231542245690493
0.4193831488495852
0.4156346819859515
0.41190844778664926
0.40820407902261857
0.40452121699860283
0.4008595112511085
0.3972186193430234
0.3935982067283893
0.389997946665974
0.386417520164989
0.3828566159493562
0.3793149304297095
0.3757921676756454
0.3722880393832335
0.3688022648331898
0.36533457083435805
0.36188469164729187
0.3584523688844675
0.3550373513857306
0.35163939506850794
0.34825826275194816
0.3448937239532199
0.3415455546534343
0.3382135370306459
0.33489745915891955
0.33159711467602515
0.32831230242705167
0.3250428260945613
0.32178849382516506
0.3185491178568454
0.3153245141433042
0.31211450196549756
0.30891890352045687
0.30573754348479604
0.3025702485622672
0.2994168470353238
0.29627716834344386
0.29315104270273135
0.2900383007648452
0.28693877329697426
0.2838522908583071
0.28077868345764023
0.27771778019783033
0.27466940893385516
0.27163339597855773
0.26860956587718066
0.26559774124475954
0.26259774263588537
0.25960938841093484
0.2566324945816237
0.2536668746501907
0.25071233947925375
0.2477686972267822
0.24483575335341418
0.24191331067641123
0.23900116943001182
0.23609912730718935
0.23320697949170952
0.23032451871555082
0.22745153537365667
0.2245878176971548
0.22173315195271415
0.21888732262877042
0.21605011259669854
0.21322130327392025
0.21040067483100172
0.2075880064596375
0.2047830766733721
0.20198566358960346
0.19919554516493232
0.19641249940814792
0.1936363046273039
0.19086673974465068
0.1881035846520313
0.1853466205375565
0.18259563013748736
0.17985039793905194
0.17711071041102205
0.17437635631330553
0.17164712705375113
0.16892281700244255
0.16620322370464316
0.16348814802655662
0.16077739432710475
0.15807077070913594
0.15536808930663226
0.15266916651828558
0.1499738231539324
0.14728188454922825
0.1445931807139677
0.14190754649679693
0.13922482168436565
0.13654485100488795
0.13386748412265215
0.13119257573594031
0.12851998576534882
0.12584957948042652
0.12318122744634477
0.12051480536362211
0.11785019398287279
0.11518727914166284
0.11252595177170441
0.10986610776696352
0.10720764783617341
0.10455047750074277
0.10189450713940641
0.09923965183734547
0.09658583104510111
0.09393296833318984
0.09128099139284877
0.08862983206931165
0.08597942617893121
0.08332971320116735
0.08068063607437231
0.07803214105539348
0.07538417750146459
0.07273669766830965
0.07008965657122336
0.06744301175290847
0.0647967230942987
0.0621507528239914
0.0595050651125794
0.05685962508143703
0.05421439864049986
0.05156935335552085
0.04892445812961384
0.046279681799918475
0.04363499278075025
0.04099035896820348
0.038345747413527975
0.03570112416898206
0.03305645246172834
0.03041169177880881
0.027766798894289457
0.025121722428745063
0.0224764071783286
0.019830776016427194
0.017184777947576082
0.014538180901223885
0.011891354531946534
0.009242075126550585
0.006599141660047396
0.003915239350471389
0.0012841415933468538
1.046821390124037
0.9909106765659405
0.925012149433698
0.8619540076756044
0.8092518132328151
0.7675769307626803
0.7350694755194345
0.7095268246197715
0.689093791908881
0.6723733965741884
0.6583624612391693
0.6463529306020439
0.6358448827816308
0.6264817506379462
0.6180054614721953
0.6102262234207412
0.6030022598765858
0.5962261062346834
0.589815215933182
0.5837054183720816
0.5778462892673187
0.5721978235509667
0.566728009273276
0.5614110341311153
0.5562259425770801
0.551155618165547
0.5461860036377703
0.5413054969217941
0.5365044788285963
0.5317749404395614
0.5271101867662963
0.5225045993576576
0.51795344489733
0.5134527200004548
0.5089990247365971
0.5045894591109742
0.5002215380233738
0.49589312118812673
0.49160235524018325
0.48734762580458
0.4831275177493203
0.47894078218965097
0.4747863090711009
0.47066310438046854
0.466570271208145
0.462506994010618
0.4584725255383762
0.4544661759938984
0.4504873040518217
0.44653530943120123
0.4426096267655162
0.43870972055742363
0.43483508103608537
0.4309852207646217
0.4271596718717299
0.42335798380161216
0.419579721492808
0.4158244639116889
0.4120918028793961
0.40838134214077654
0.4046926966310893
0.40102549190196723
0.39737936367288723
0.3937539574789809
0.3901489283909267
0.3865639407874475
0.3829986681651392
0.3794527929740341
0.3759260064701017
0.37241800857719054
0.3689285077510039
0.36545722083788157
0.36200387292239
0.3585681971598186
0.35514993459163946
0.3517488339428594
0.3483646513997225
0.3449971503648232
0.3416461011853844
0.33831128085060536
0.3349924726567229
0.33168946584360104
0.3284020552121669
0.32513004073456575
0.3218732271660794
0.31863142366006264
0.31540444337803447
0.312192103081931
0.30899422269842913
0.30581062485631383
0.3026411344122944
0.299485577990569
0.2963437835599104
0.2932155800577511
0.29010079705002556
0.286999264399986
0.2839108119193683
0.280835268993394
0.27777246419807644
0.2747222249477193
0.2716843772085111
0.26865874528936107
0.26564515168764297
0.2626434169470477
0.2596533594923473
0.2566747954382512
0.2537075384055409
0.2507513993917997
0.2478061867249623
0.24487170608793726
0.2419477605704341
0.23903415070424885
0.2361306744715043
0.23323712731640914
0.23035330220698164
0.22747898976964587
0.22461397847500542
0.2217580548253212
0.21891100350914078
0.21607260753535307
0.21324264839640486
0.21042090630205984
0.20760716047442201
0.2048011894468041
0.20200277131086605
0.19921168391217114
0.196427705054707
0.19365061278002615
0.19088018572471194
0.188116203485985
0.18535844691375603
0.18260669831717782
0.17986074166054733
0.17712036283748578
0.1743853500319361
0.17165549407806727
0.168930588721891
0.1662104307811694
0.16349482029975893
0.16078356078819045
0.15807645953582894
0.15537332789018235
0.15267398142995878
0.14997824007392316
0.1472859282247295
0.14459687496909646
0.14191091424122007
0.13922788486673993
0.13654763054636399
0.13386999992628
0.13119484679578208
0.12852203026817147
0.12585141478462217
0.12318286997130812
0.12051627053541888
0.11785149629959053
0.11518843226193212
0.11252696852460883
0.10986700013012286
0.10720842699449151
0.10455115396608011
0.10189509077894203
0.09924015176221329
0.09658625553844202
0.09393332497945625
0.09128128726582498
0.08863007371980978
0.08597961949071026
0.08332986343587033
0.08068074810320391
0.07803221938088092
0.07538422600366423
0.07273671962296359
0.07008965511747993
0.06744298995635396
0.0647966831454356
0.0621506956883307
0.05950499166826566
0.056859537025367037
0.05421429750101044
0.051569239518663525
0.04892433149184168
0.04627954209925982
0.04363483914424926
0.04099019033840778
0.03834556255663744
0.03570092108200646
0.03305622899004763
0.03041144556080719
0.027766527724121377
0.025121424563171974
0.022476085019527938
0.019830430617065166
0.01718444449431359
0.014537874962587263
0.011891296970002288
0.009242553935327339
0.0065996941423796225
0.003932601903917974
0.001297060855216619
0.9527331307799308
0.9278064551562453
0.888543119478158
0.844613641211009
0.8038326399262054
0.7687890072831716
0.7395533774152757
0.7153451781585879
0.6952147083925249
0.6782918447164351
0.6638598959537007
0.6513578667587909
0.6403569680052252
0.6305322329018932
0.6216373290380774
0.6134846073093708
0.6059300715787467
0.5988622965700156
0.5921943130933354
0.5858576611886132
0.5797980100945073
0.5739719092485058
0.5683443587621434
0.5628869771342291
0.5575766073868609
0.5523942475601928
0.5473242231003388
0.5423535411254177
0.5374713825799206
0.5326686998066493
0.5279378953812275
0.5232725641150379
0.5186672845497886
0.5141174495257071
0.5096191278302564
0.5051689507384524
0.5007640186071853
0.49640182372491226
0.49208018641168494
0.48779720196633486
0.4835511965297144
0.47934069030964543
0.4751643669000847
0.47102104765810127
0.4669096702939791
0.4628292709756393
0.4587789693661814
0.4547579561160621
0.45076548241399994
0.4468008512643629
0.44286341021086223
0.43895254527158123
0.43506767589001055
0.43120825073823704
0.4273737442322584
0.42356365364134296
0.41977749669479497
0.4160148096062327
0.41227514544689
0.4085580728090471
0.40486317470985833
0.4011900476928748
0.3975383010891459
0.39390755640435293
0.3902974468045705
0.38670761667951226
0.3831377212665952
0.37958742632204684
0.37605640782751415
0.37254435172205946
0.3690509536498763
0.3655759187144553
0.36211896123157783
0.35867980447640335
0.35525818042265045
0.3518538294728798
0.3484665001776564
0.34509594893885653
0.3417419396905064
0.33840424355123144
0.3350826384465936
0.3317769087063083
0.32848684464754707
0.3252122421574262
0.32195290228303836
0.3187086308273001
0.31547923793852806
0.3122645376775294
0.3090643475522208
0.3058784880249402
0.30270678201429185
0.2995490544216608
0.2964051317056475
0.2932748415070379
0.29015801230295046
0.28705447305602366
0.2839640528328654
0.28088658039326625
0.2778218837827122
0.27476978997534146
0.2717301246005807
0.2687027117501166
0.26568737382496566
0.26268393137054113
0.2596922028711942
0.25671200452084425
0.25374315002233727
0.2507854504684364
0.2478387143195395
0.244902747443224
0.24197735315543684
0.23906233222278747
0.2361574828362585
0.23326260060908358
0.23037747865039773
0.22750190772070447
0.2246356764226018
0.2217785713668063
0.21893037729378145
0.21609087719147121
0.2132598524742415
0.2104370832500467
0.20762234863266527
0.20481542701912928
0.2020160962896967
0.19922413397084365
0.1964393174530753
0.19366142431925112
0.19089023274171307
0.18812552183989437
0.18536707192548021
0.18261466467275206
0.179868083328859
0.17712711303878695
0.1743915412374188
0.17166115798389076
0.16893575616898096
0.16621513165930107
0.1634990835051196
0.16078741425590543
0.15807993029011627
0.15537644203536036
0.1526767640733326
0.14998071525031062
0.147288118886852
0.14459880302414413
0.14191260056039562
0.1392293492472668
0.13654889169744303
0.13387107554607924
0.13119575368817016
0.12852278436929165
0.12585203106336887
0.12318336233554383
0.12051665188201532
0.11785177865787165
0.11518862686150781
0.11252708575721931
0.10986704955901158
0.10720841748534363
0.10455109378370597
0.10189498750615514
0.09924001217419029
0.09658608567118676
0.09393313036190669
0.09128107304730033
0.08862984460369783
0.08597937967464973
0.08332961666537667
0.08068049770088079
0.07803196821847738
0.0753839765750017
0.07273647421886176
0.07008941597261997
0.06744275935738663
0.0647964633555675
0.062150488508777586
0.05950479819350776
0.05685935825205721
0.05421413502289317
0.05156909533961733
0.04892420753833102
0.04627944022222049
0.04363476154428944
0.04099014000051528
0.038345542866602474
0.03570093593071294
0.0330562839470179
0.030411547589258445
0.027766686367063222
0.025121653679024455
0.022476407368564422
0.01983087451158559
0.017185072813820958
0.014538763550912073
0.011892554090543074
0.009244703622525788
0.006600955191515887
0.003944669656233827
0.0013066926671284
0.8919361678241544
0.8799004620029589
0.8559646356103894
0.8256013475338703
0.7947679848043104
0.7662610270117336
0.7409742549165041
0.7189488191338481
0.6998775761603531
0.6833387617780105
0.6689066397955183
0.6561994505341529
0.6448945152056853
0.6347275841633891
0.6254858451403263
0.616999273480273
0.6091323866417372
0.6017771509052708
0.5948471815456969
0.5882731271431938
0.5819990484074539
0.5759795960715439
0.5701778159861708
0.5645634404904194
0.5591115545669438
0.5538015503709692
0.5486163038671587
0.5435415229905552
0.53856522875662
0.5336773399160981
0.5288693386661465
0.5241340001731019
0.5194651726196708
0.5148575974937538
0.5103067621128653
0.5058087781233187
0.5013602810309636
0.49695834685680773
0.4926004228050341
0.4882842694435503
0.4840079123784665
0.4797696017869728
0.47556777847783316
0.47140104538814614
0.46726814361919466
0.4631679322715997
0.45909937146486524
0.45506150803091633
0.45105346345916647
0.4470744237387427
0.4431236307975771
0.43920037528677386
0.43530399050076996
0.4314338472554143
0.4275893495715926
0.42376993103736127
0.4199750517443117
0.41620419570987904
0.4124568687092509
0.4087325964522706
0.40503092305070515
0.4013514097273714
0.3976936337232666
0.39405718736536177
0.39044167726561035
0.38684672362802913
0.3832719596444322
0.3797170309621104
0.3761815952093103
0.37266532156575155
0.3691678903653389
0.3656889927186739
0.3622283301458381
0.35878561421449734
0.35536056618197287
0.3519529166404657
0.3485624051621203
0.34518877993693164
0.3418317973941761
0.3384912217992383
0.33516682482323545
0.33185838509121457
0.32856568772202105
0.3252885238744583
0.32202669030760706
0.31877998895048965
0.3155482264645696
0.312331213779816
0.3091287655950915
0.30594069985284233
0.30276683721623676
0.2996070005823938
0.29646101465236274
0.29332870555196816
0.29020990047213213
0.2871044272894922
0.2840121141460167
0.28093278900206664
0.2778662792095582
0.2748124111580297
0.27177101001857673
0.2687418995635822
0.26572490200439847
0.2627198377908918
0.25972652535834706
0.2567447808622991
0.2537744179716354
0.250815247771107
0.2478670787670928
0.2449297169355504
0.24200296574031005
0.23908662609350206
0.2361804962957561
0.23328437202946883
0.2303980464531676
0.22752131037777373
0.22465395245318157
0.22179575930360032
0.2189465156169192
0.21610600425802748
0.21327400647625894
0.21045030220644093
0.20763467038344713
0.2048268891799266
0.20202673615496325
0.19923398840066278
0.19644842279662708
0.19366981639639053
0.1908979468496692
0.18813259272838737
0.18537353371701723
0.18262055076315556
0.17987342632421432
0.17713194474375482
0.1743958926503214
0.1716650592454788
0.16893923646977801
0.16621821917152896
0.16350180539370676
0.16078979674170968
0.15808199867665557
0.15537822064608703
0.15267827614710455
0.14998198289105055
0.14728916309796475
0.14459964376017106
0.14191325672657393
0.1392298386750778
0.13654923118086604
0.13387128094513318
0.1311958399922572
0.12852276563501067
0.12585192029901132
0.12318317149462205
0.12051639200864867
0.11785146003663047
0.11518825902962838
0.11252667744736213
0.10986660874226511
0.10720795150004457
0.10455060936236275
0.10189449067607798
0.09923950825639707
0.09658557947267003
0.09393262632944463
0.09128057522228081
0.08862935659448129
0.08597890481300163
0.0833291580661422
0.08068005806036083
0.07803154983348193
0.07538358180942442
0.07273610561196044
0.07008907565447128
0.06744244907669306
0.06479618558661207
0.062150246639439646
0.059504595197369795
0.05685919657449444
0.05421401814165374
0.051569027967417566
0.048924194606040854
0.04627948725264836
0.04363487535447237
0.04099032878706674
0.03834581646131939
0.03570130637063984
0.03305676612012394
0.030412160021132267
0.027767452182048128
0.025122602903740073
0.02247758094781767
0.019832324504916007
0.01718687090049853
0.014541027398226313
0.011895299335794859
0.009248515211454422
0.0066041427027316805
0.003954251488620156
0.001314487121735213
0.8501104054665916
0.8435432304464413
0.8282867657642562
0.8070405415016891
0.7838328216391997
0.7610206017331118
0.7396956445797681
0.7202684307140075
0.7027969330461385
0.687162478434632
0.6731693436545902
0.6606006095248327
0.6492471370647604
0.6389206337256779
0.6294579340209254
0.6207207942943255
0.6125936393082029
0.6049805754357811
0.5978023405698101
0.5909935009409388