# vtk DataFile Version 3.0
jCFD simulation data
ASCII
DATASET UNSTRUCTURED_GRID
POINTS 8241 double
0.0 0.0 0.0
0.5 0.0 0.0
0.0 0.1 0.0
0.5 0.1 0.0
0.0025 0.0 0.0
0.005 0.0 0.0
0.0075 0.0 0.0
0.01 0.0 0.0
0.0125 0.0 0.0
0.015 0.0 0.0
0.0175 0.0 0.0
0.02 0.0 0.0
0.0225 0.0 0.0
0.025 0.0 0.0
0.0275 0.0 0.0
0.03 0.0 0.0
0.0325 0.0 0.0
0.035 0.0 0.0
0.0375 0.0 0.0
0.04 0.0 0.0
0.0425 0.0 0.0
0.045 0.0 0.0
0.0475 0.0 0.0
0.05 0.0 0.0
0.0525 0.0 0.0
0.055 0.0 0.0
0.0575 0.0 0.0
0.06 0.0 0.0
0.0625 0.0 0.0
0.065 0.0 0.0
0.0675 0.0 0.0
0.07 0.0 0.0
0.0725 0.0 0.0
0.075 0.0 0.0
0.0775 0.0 0.0
0.08 0.0 0.0
0.0825 0.0 0.0
0.085 0.0 0.0
0.08750000000000001 0.0 0.0
0.09 0.0 0.0
0.0925 0.0 0.0
0.095 0.0 0.0
0.0975 0.0 0.0
0.1 0.0 0.0
0.10250000000000001 0.0 0.0
0.105 0.0 0.0
0.1075 0.0 0.0
0.11 0.0 0.0
0.1125 0.0 0.0
0.115 0.0 0.0
0.11750000000000001 0.0 0.0
0.12 0.0 0.0
0.1225 0.0 0.0
0.125 0.0 0.0
0.1275 0.0 0.0
0.13 0.0 0.0
0.1325 0.0 0.0
0.135 0.0 0.0
0.1375 0.0 0.0
0.14 0.0 0.0
0.14250000000000002 0.0 0.0
0.145 0.0 0.0
0.1475 0.0 0.0
0.15 0.0 0.0
0.1525 0.0 0.0
0.155 0.0 0.0
0.1575 0.0 0.0
0.16 0.0 0.0
0.1625 0.0 0.0
0.165 0.0 0.0
0.1675 0.0 0.0
0.17 0.0 0.0
0.17250000000000001 0.0 0.0
0.17500000000000002 0.0 0.0
0.1775 0.0 0.0
0.18 0.0 0.0
0.1825 0.0 0.0
0.185 0.0 0.0
0.1875 0.0 0.0
0.19 0.0 0.0
0.1925 0.0 0.0
0.195 0.0 0.0
0.1975 0.0 0.0
0.2 0.0 0.0
0.2025 0.0 0.0
0.20500000000000002 0.0 0.0
0.20750000000000002 0.0 0.0
0.21 0.0 0.0
0.2125 0.0 0.0
0.215 0.0 0.0
0.2175 0.0 0.0
0.22 0.0 0.0
0.2225 0.0 0.0
0.225 0.0 0.0
0.2275 0.0 0.0
0.23 0.0 0.0
0.2325 0.0 0.0
0.23500000000000001 0.0 0.0
0.23750000000000002 0.0 0.0
0.24 0.0 0.0
0.2425 0.0 0.0
0.245 0.0 0.0
0.2475 0.0 0.0
0.25 0.0 0.0
0.2525 0.0 0.0
0.255 0.0 0.0
0.2575 0.0 0.0
0.26 0.0 0.0
0.2625 0.0 0.0
0.265 0.0 0.0
0.2675 0.0 0.0
0.27 0.0 0.0
0.2725 0.0 0.0
0.275 0.0 0.0
0.2775 0.0 0.0
0.28 0.0 0.0
0.28250000000000003 0.0 0.0
0.28500000000000003 0.0 0.0
0.28750000000000003 0.0 0.0
0.29 0.0 0.0
0.2925 0.0 0.0
0.295 0.0 0.0
0.2975 0.0 0.0
0.3 0.0 0.0
0.3025 0.0 0.0
0.305 0.0 0.0
0.3075 0.0 0.0
0.31 0.0 0.0
0.3125 0.0 0.0
0.315 0.0 0.0
0.3175 0.0 0.0
0.32 0.0 0.0
0.3225 0.0 0.0
0.325 0.0 0.0
0.3275 0.0 0.0
0.33 0.0 0.0
0.3325 0.0 0.0
0.335 0.0 0.0
0.3375 0.0 0.0
0.34 0.0 0.0
0.3425 0.0 0.0
0.34500000000000003 0.0 0.0
0.34750000000000003 0.0 0.0
0.35000000000000003 0.0 0.0
0.3525 0.0 0.0
0.355 0.0 0.0
0.3575 0.0 0.0
0.36 0.0 0.0
0.3625 0.0 0.0
0.365 0.0 0.0
0.3675 0.0 0.0
0.37 0.0 0.0
0.3725 0.0 0.0
0.375 0.0 0.0
0.3775 0.0 0.0
0.38 0.0 0.0
0.3825 0.0 0.0
0.385 0.0 0.0
0.3875 0.0 0.0
0.39 0.0 0.0
0.3925 0.0 0.0
0.395 0.0 0.0
0.3975 0.0 0.0
0.4 0.0 0.0
0.4025 0.0 0.0
0.405 0.0 0.0
0.40750000000000003 0.0 0.0
0.41000000000000003 0.0 0.0
0.41250000000000003 0.0 0.0
0.41500000000000004 0.0 0.0
0.4175 0.0 0.0
0.42 0.0 0.0
0.4225 0.0 0.0
0.425 0.0 0.0
0.4275 0.0 0.0
0.43 0.0 0.0
0.4325 0.0 0.0
0.435 0.0 0.0
0.4375 0.0 0.0
0.44 0.0 0.0
0.4425 0.0 0.0
0.445 0.0 0.0
0.4475 0.0 0.0
0.45 0.0 0.0
0.4525 0.0 0.0
0.455 0.0 0.0
0.4575 0.0 0.0
0.46 0.0 0.0
0.4625 0.0 0.0
0.465 0.0 0.0
0.4675 0.0 0.0
0.47000000000000003 0.0 0.0
0.47250000000000003 0.0 0.0
0.47500000000000003 0.0 0.0
0.47750000000000004 0.0 0.0
0.48 0.0 0.0
0.4825 0.0 0.0
0.485 0.0 0.0
0.4875 0.0 0.0
0.49 0.0 0.0
0.4925 0.0 0.0
0.495 0.0 0.0
0.4975 0.0 0.0
0.0025 0.1 0.0
0.005 0.1 0.0
0.0075 0.1 0.0
0.01 0.1 0.0
0.0125 0.1 0.0
0.015 0.1 0.0
0.0175 0.1 0.0
0.02 0.1 0.0
0.0225 0.1 0.0
0.025 0.1 0.0
0.0275 0.1 0.0
0.03 0.1 0.0
0.0325 0.1 0.0
0.035 0.1 0.0
0.0375 0.1 0.0
0.04 0.1 0.0
0.0425 0.1 0.0
0.045 0.1 0.0
0.0475 0.1 0.0
0.05 0.1 0.0
0.0525 0.1 0.0
0.055 0.1 0.0
0.0575 0.1 0.0
0.06 0.1 0.0
0.0625 0.1 0.0
0.065 0.1 0.0
0.0675 0.1 0.0
0.07 0.1 0.0
0.0725 0.1 0.0
0.075 0.1 0.0
0.0775 0.1 0.0
0.08 0.1 0.0
0.0825 0.1 0.0
0.085 0.1 0.0
0.08750000000000001 0.1 0.0
0.09 0.1 0.0
0.0925 0.1 0.0
0.095 0.1 0.0
0.0975 0.1 0.0
0.1 0.1 0.0
0.10250000000000001 0.1 0.0
0.105 0.1 0.0
0.1075 0.1 0.0
0.11 0.1 0.0
0.1125 0.1 0.0
0.115 0.1 0.0
0.11750000000000001 0.1 0.0
0.12 0.1 0.0
0.1225 0.1 0.0
0.125 0.1 0.0
0.1275 0.1 0.0
0.13 0.1 0.0
0.1325 0.1 0.0
0.135 0.1 0.0
0.1375 0.1 0.0
0.14 0.1 0.0
0.14250000000000002 0.1 0.0
0.145 0.1 0.0
0.1475 0.1 0.0
0.15 0.1 0.0
0.1525 0.1 0.0
0.155 0.1 0.0
0.1575 0.1 0.0
0.16 0.1 0.0
0.1625 0.1 0.0
0.165 0.1 0.0
0.1675 0.1 0.0
0.17 0.1 0.0
0.17250000000000001 0.1 0.0
0.17500000000000002 0.1 0.0
0.1775 0.1 0.0
0.18 0.1 0.0
0.1825 0.1 0.0
0.185 0.1 0.0
0.1875 0.1 0.0
0.19 0.1 0.0
0.1925 0.1 0.0
0.195 0.1 0.0
0.1975 0.1 0.0
0.2 0.1 0.0
0.2025 0.1 0.0
0.20500000000000002 0.1 0.0
0.20750000000000002 0.1 0.0
0.21 0.1 0.0
0.2125 0.1 0.0
0.215 0.1 0.0
0.2175 0.1 0.0
0.22 0.1 0.0
0.2225 0.1 0.0
0.225 0.1 0.0
0.2275 0.1 0.0
0.23 0.1 0.0
0.2325 0.1 0.0
0.23500000000000001 0.1 0.0
0.23750000000000002 0.1 0.0
0.24 0.1 0.0
0.2425 0.1 0.0
0.245 0.1 0.0
0.2475 0.1 0.0
0.25 0.1 0.0
0.2525 0.1 0.0
0.255 0.1 0.0
0.2575 0.1 0.0
0.26 0.1 0.0
0.2625 0.1 0.0
0.265 0.1 0.0
0.2675 0.1 0.0
0.27 0.1 0.0
0.2725 0.1 0.0
0.275 0.1 0.0
0.2775 0.1 0.0
0.28 0.1 0.0
0.28250000000000003 0.1 0.0
0.28500000000000003 0.1 0.0
0.28750000000000003 0.1 0.0
0.29 0.1 0.0
0.2925 0.1 0.0
0.295 0.1 0.0
0.2975 0.1 0.0
0.3 0.1 0.0
0.3025 0.1 0.0
0.305 0.1 0.0
0.3075 0.1 0.0
0.31 0.1 0.0
0.3125 0.1 0.0
0.315 0.1 0.0
0.3175 0.1 0.0
0.32 0.1 0.0
0.3225 0.1 0.0
0.325 0.1 0.0
0.3275 0.1 0.0
0.33 0.1 0.0
0.3325 0.1 0.0
0.335 0.1 0.0
0.3375 0.1 0.0
0.34 0.1 0.0
0.3425 0.1 0.0
0.34500000000000003 0.1 0.0
0.34750000000000003 0.1 0.0
0.35000000000000003 0.1 0.0
0.3525 0.1 0.0
0.355 0.1 0.0
0.3575 0.1 0.0
0.36 0.1 0.0
0.3625 0.1 0.0
0.365 0.1 0.0
0.3675 0.1 0.0
0.37 0.1 0.0
0.3725 0.1 0.0
0.375 0.1 0.0
0.3775 0.1 0.0
0.38 0.1 0.0
0.3825 0.1 0.0
0.385 0.1 0.0
0.3875 0.1 0.0
0.39 0.1 0.0
0.3925 0.1 0.0
0.395 0.1 0.0
0.3975 0.1 0.0
0.4 0.1 0.0
0.4025 0.1 0.0
0.405 0.1 0.0
0.40750000000000003 0.1 0.0
0.41000000000000003 0.1 0.0
0.41250000000000003 0.1 0.0
0.41500000000000004 0.1 0.0
0.4175 0.1 0.0
0.42 0.1 0.0
0.4225 0.1 0.0
0.425 0.1 0.0
0.4275 0.1 0.0
0.43 0.1 0.0
0.4325 0.1 0.0
0.435 0.1 0.0
0.4375 0.1 0.0
0.44 0.1 0.0
0.4425 0.1 0.0
0.445 0.1 0.0
0.4475 0.1 0.0
0.45 0.1 0.0
0.4525 0.1 0.0
0.455 0.1 0.0
0.4575 0.1 0.0
0.46 0.1 0.0
0.4625 0.1 0.0
0.465 0.1 0.0
0.4675 0.1 0.0
0.47000000000000003 0.1 0.0
0.47250000000000003 0.1 0.0
0.47500000000000003 0.1 0.0
0.47750000000000004 0.1 0.0
0.48 0.1 0.0
0.4825 0.1 0.0
0.485 0.1 0.0
0.4875 0.1 0.0
0.49 0.1 0.0
0.4925 0.1 0.0
0.495 0.1 0.0
0.4975 0.1 0.0
0.0 0.0025 0.0
0.0 0.005 0.0
0.0 0.0075 0.0
0.0 0.01 0.0
0.0 0.0125 0.0
0.0 0.015 0.0
0.0 0.0175 0.0
0.0 0.02 0.0
0.0 0.0225 0.0
0.0 0.025 0.0
0.0 0.0275 0.0
0.0 0.03 0.0
0.0 0.0325 0.0
0.0 0.035 0.0
0.0 0.0375 0.0
0.0 0.04 0.0
0.0 0.0425 0.0
0.0 0.045 0.0
0.0 0.0475 0.0
0.0 0.05 0.0
0.0 0.0525 0.0
0.0 0.055 0.0
0.0 0.0575 0.0
0.0 0.06 0.0
0.0 0.0625 0.0
0.0 0.065 0.0
0.0 0.0675 0.0
0.0 0.07 0.0
0.0 0.0725 0.0
0.0 0.075 0.0
0.0 0.0775 0.0
0.0 0.08 0.0
0.0 0.0825 0.0
0.0 0.085 0.0
0.0 0.08750000000000001 0.0
0.0 0.09 0.0
0.0 0.0925 0.0
0.0 0.095 0.0
0.0 0.0975 0.0
0.5 0.0025 0.0
0.5 0.005 0.0
0.5 0.0075 0.0
0.5 0.01 0.0
0.5 0.0125 0.0
0.5 0.015 0.0
0.5 0.0175 0.0
0.5 0.02 0.0
0.5 0.0225 0.0
0.5 0.025 0.0
0.5 0.0275 0.0
0.5 0.03 0.0
0.5 0.0325 0.0
0.5 0.035 0.0
0.5 0.0375 0.0
0.5 0.04 0.0
0.5 0.0425 0.0
0.5 0.045 0.0
0.5 0.0475 0.0
0.5 0.05 0.0
0.5 0.0525 0.0
0.5 0.055 0.0
0.5 0.0575 0.0
0.5 0.06 0.0
0.5 0.0625 0.0
0.5 0.065 0.0
0.5 0.0675 0.0
0.5 0.07 0.0
0.5 0.0725 0.0
0.5 0.075 0.0
0.5 0.0775 0.0
0.5 0.08 0.0
0.5 0.0825 0.0
0.5 0.085 0.0
0.5 0.08750000000000001 0.0
0.5 0.09 0.0
0.5 0.0925 0.0
0.5 0.095 0.0
0.5 0.0975 0.0
0.0025 0.0025 0.0
0.005 0.0025 0.0
0.0075 0.0025 0.0
0.01 0.0025 0.0
0.0125 0.0025 0.0
0.015 0.0025 0.0
0.0175 0.0025 0.0
0.02 0.0025 0.0
0.0225 0.0025 0.0
0.025 0.0025 0.0
0.0275 0.0025 0.0
0.03 0.0025 0.0
0.0325 0.0025 0.0
0.035 0.0025 0.0
0.0375 0.0025 0.0
0.04 0.0025 0.0
0.0425 0.0025 0.0
0.045 0.0025 0.0
0.0475 0.0025 0.0
0.05 0.0025 0.0
0.0525 0.0025 0.0
0.055 0.0025 0.0
0.0575 0.0025 0.0
0.06 0.0025 0.0
0.0625 0.0025 0.0
0.065 0.0025 0.0
0.0675 0.0025 0.0
0.07 0.0025 0.0
0.0725 0.0025 0.0
0.075 0.0025 0.0
0.0775 0.0025 0.0
0.08 0.0025 0.0
0.0825 0.0025 0.0
0.085 0.0025 0.0
0.08750000000000001 0.0025 0.0
0.09 0.0025 0.0
0.0925 0.0025 0.0
0.095 0.0025 0.0
0.0975 0.0025 0.0
0.1 0.0025 0.0
0.10250000000000001 0.0025 0.0
0.105 0.0025 0.0
0.1075 0.0025 0.0
0.11 0.0025 0.0
0.1125 0.0025 0.0
0.115 0.0025 0.0
0.11750000000000001 0.0025 0.0
0.12 0.0025 0.0
0.1225 0.0025 0.0
0.125 0.0025 0.0
0.1275 0.0025 0.0
0.13 0.0025 0.0
0.1325 0.0025 0.0
0.135 0.0025 0.0
0.1375 0.0025 0.0
0.14 0.0025 0.0
0.14250000000000002 0.0025 0.0
0.145 0.0025 0.0
0.1475 0.0025 0.0
0.15 0.0025 0.0
0.1525 0.0025 0.0
0.155 0.0025 0.0
0.1575 0.0025 0.0
0.16 0.0025 0.0
0.1625 0.0025 0.0
0.165 0.0025 0.0
0.1675 0.0025 0.0
0.17 0.0025 0.0
0.17250000000000001 0.0025 0.0
0.17500000000000002 0.0025 0.0
0.1775 0.0025 0.0
0.18 0.0025 0.0
0.1825 0.0025 0.0
0.185 0.0025 0.0
0.1875 0.0025 0.0
0.19 0.0025 0.0
0.1925 0.0025 0.0
0.195 0.0025 0.0
0.1975 0.0025 0.0
0.2 0.0025 0.0
0.2025 0.0025 0.0
0.20500000000000002 0.0025 0.0
0.20750000000000002 0.0025 0.0
0.21 0.0025 0.0
0.2125 0.0025 0.0
0.215 0.0025 0.0
0.2175 0.0025 0.0
0.22 0.0025 0.0
0.2225 0.0025 0.0
0.225 0.0025 0.0
0.2275 0.0025 0.0
0.23 0.0025 0.0
0.2325 0.0025 0.0
0.23500000000000001 0.0025 0.0
0.23750000000000002 0.0025 0.0
0.24 0.0025 0.0
0.2425 0.0025 0.0
0.245 0.0025 0.0
0.2475 0.0025 0.0
0.25 0.0025 0.0
0.2525 0.0025 0.0
0.255 0.0025 0.0
0.2575 0.0025 0.0
0.26 0.0025 0.0
0.2625 0.0025 0.0
0.265 0.0025 0.0
0.2675 0.0025 0.0
0.27 0.0025 0.0
0.2725 0.0025 0.0
0.275 0.0025 0.0
0.2775 0.0025 0.0
0.28 0.0025 0.0
0.28250000000000003 0.0025 0.0
0.28500000000000003 0.0025 0.0
0.28750000000000003 0.0025 0.0
0.29 0.0025 0.0
0.2925 0.0025 0.0
0.295 0.0025 0.0
0.2975 0.0025 0.0
0.3 0.0025 0.0
0.3025 0.0025 0.0
0.305 0.0025 0.0
0.3075 0.0025 0.0
0.31 0.0025 0.0
0.3125 0.0025 0.0
0.315 0.0025 0.0
0.3175 0.0025 0.0
0.32 0.0025 0.0
0.3225 0.0025 0.0
[...]
CELL_DATA 8000
SCALARS phi float 1
LOOKUP_TABLE CellColors
1.0978966580758727
1.0904855911861207
1.0831578093521577
1.0758355606466727
1.0690092182274866
1.0626995221952953
1.0567798063212885
1.0511281679964086
1.045658347904407
1.0403130324098522
1.0350533116064107
1.0298515086048856
1.0246870811947755
1.0195443272088642
1.0144110288141088
1.009277584088034
1.0041364090545066
0.9989815048731128
0.9938081346749204
0.9886125773030332
0.9833919367097748
0.9781439923982905
0.9728670805692194
0.9675599985473734
0.9622219270999394
0.956852366693131
0.9514510847554843
0.9460180717447086
0.9405535043334048
0.9350577144091748
0.9295311628614661
0.9239744173453526
0.9183881333700001
0.9127730381849627
0.9071299170287765
0.9014596013820133
0.8957629589289231
0.8900408849795164
0.884294295144668
0.8785241190845043
0.872731295179855
0.8669167659996204
0.8610814744541515
0.8552263605410342
0.8493523586017788
0.8434603950186159
0.8375513862910859
0.8316262374412766
0.8256858407027183
0.8197310744530584
0.8137628023562515
0.8077818726852201
0.8017891177997103
0.7957853537571837
0.7897713800372458
0.7837479793628764
0.7777159176042159
0.7716759437524123
0.7656287899525982
0.7595751715865878
0.7535157873970508
0.7474513196461121
0.741382434302515
0.7353097812519754
0.7292339945263366
0.7231556925474802
0.7170754783826334
0.7109939400081587
0.7049116505796025
0.6988291687060382
0.6927470387267516
0.6866657909885467
0.6805859421226141
0.6745079953199554
0.6684324406047503
0.6623597551047179
0.656290403317631
0.6502248373735336
0.6441634972926658
0.6381068112388959
0.6320551957681171
0.6260090560714902
0.6199687862134555
0.6139347693644763
0.6079073780285364
0.6018869742654981
0.5958739099082346
0.589868526774622
0.5838711568745996
0.5778821226123334
0.5719017369833961
0.565930303767287
0.5599681177154481
0.5540154647349038
0.5480726220676124
0.5421398584656038
0.5362174343620829
0.5303056020386978
0.5244046057891225
0.5185146820790248
0.5126360597024743
0.5067689599349425
0.5009135966831973
0.4950701766321507
0.4892388993886881
0.48341995762252676
0.4776135372042767
0.47181981734081774
0.46603897070819633
0.46027116358206566
0.45451655596565005
0.4487753017153937
0.4430475486643316
0.43733343874331687
0.43163310810014466
0.4259466872165845
0.42027430102345276
0.4146160690138866
0.40897210535473116
0.40334251899592216
0.39772741377812787
0.39212688853870004
0.386541037215991
0.38096994895201564
0.37541370819344466
0.36987239479092426
0.36434608409688873
0.358834847061763
0.3533387503286063
0.3478578563263748
0.34239222336157055
0.33694190570845883
0.3315069536976406
0.32608741380323564
0.32068332872854544
0.3152947374901949
0.30992167550071564
0.30456417464948876
0.29922226338224606
0.29389596677891305
0.28858530662989434
0.2832903015104044
0.2780109668528959
0.2727473150177743
0.2674993553622659
0.2622670943070227
0.2570505354002932
0.25184967937961544
0.24666452423107557
0.24149506524567663
0.23634129507225682
0.2312032037668021
0.22608077883783706
0.22097400528756803
0.21588286564800543
0.21080734001098922
0.20574740605172184
0.20070303904506054
0.1956742118733596
0.19066089502433453
0.1856630565773394
0.18068066217636244
0.17571367498766222
0.1707620556392811
0.16582576213929837
0.16090474976913735
0.15599897094741907
0.15110837505896096
0.146232908242281
0.14137251312753787
0.13652712851541277
0.13169668898466044
0.12688112441342553
0.1220803593957573
0.11729431252988085
0.11252289554857
0.1077660122540984
0.10302355720884049
0.09829541411812798
0.093581453822182
0.08888153178673591
0.08419548494440424
0.0795231276859097
0.07486424672507969
0.07021859445342311
0.06558588024205611
0.0609657589130059
0.056357815243574236
0.05176154281049693
0.047176314593633834
0.04260134130006565
0.03803561089243108
0.0334777983883594
0.028926126677485176
0.024378141764273303
0.01983032498297605
0.015277349977081953
0.010710439336678474
0.0061152826856014555
0.0019237729296167605
1.085638860537407
1.0823701844593545
1.077965077764715
1.0726962747639617
1.0671311904397278
1.0615495534808261
1.0560526350034178
1.0506593246034253
1.0453582527806182
1.0401300498403865
1.0349553666740654
1.029817241377641
1.0247014824490825
1.019596439547973
1.0144926315289315
1.0093823811603166
1.0042594978685315
0.9991190143386756
0.9939569716956368
0.9887702452645992
0.9835564031065419
0.9783135906521785
0.9730404360484295
0.9677359719916481
0.962399570767237
0.9570308899480751
0.9516298267644425
0.9461964795887634
0.9407311153017922
0.935234141557504
0.9297060831478832
0.9241475618199959
0.9185592790122925
0.9129420010741248
0.9072965466027545
0.9016237755917387
0.8959245801325142
0.8901998764501743
0.8844505980900914
0.8786776900971114
0.8728821040511978
0.8670647938426935
0.8612267120864686
0.855368807089157
0.8494920202956209
0.8435972841493202
0.8376855203093715
0.8317576381756997
0.8258145336810649
0.8198570883135604
0.8138861683369909
0.8079026241807246
0.8019072899754376
0.795900983214604
0.7898845045232996
0.7838586375179275
0.7778241487431934
0.771781787674974
0.7657322867789145
0.7596763616153932
0.7536147109829108
0.7475480170936681
0.7414769457755467
0.7354021466955684
0.7293242536003586
0.7232438845699487
0.7171616422816272
0.711078114281328
0.7049938732604797
0.6989094773362343
0.6928254703330816
0.686742382064554
0.6806607286138826
0.6745810126129891
0.6685037235188764
0.6624293378864177
0.6563583196369104
0.6502911203223013
0.6442281793849794
0.6381699244125791
0.6321167713875739
0.6260691249315391
0.6200273785440318
0.6139919148360987
0.6079631057585324
0.6019413128247426
0.5959268873282719
0.5899201705552131
0.5839214939916084
0.5779311795257133
0.5719495396453831
0.5659768776307612
0.5600134877424288
0.5540596554051078
0.5481156573869823
0.5421817619748038
0.5362582291449963
0.5303453107309318
0.524443250586466
0.5185522847457753
0.5126726415796032
0.5068045419482442
0.5009481993513853
0.49510382007483633
0.4892716033341795
0.48345174141549524
0.477644419813279
0.4718498173657663
0.4660681063877461
0.46029945280078965
0.4545440162610868
0.4488019502849316
0.4430734023720217
0.4373585141265801
0.43165742137629576
0.42597025428918583
0.4202971374886437
0.41463819016663617
0.4089935261948302
0.40336325423388286
0.397747477840967
0.3921462955756583
0.38655980110415333
0.3809880833018108
0.37543122635396053
0.3698893098551968
0.3643624089070455
0.3588505942140281
0.35335393217834254
0.3478724849929263
0.3424063107331081
0.3369554634466156
0.33151999324215325
0.3260999463764804
0.3206953653400053
0.3153062889408721
0.30993275238738677
0.3045747873690342
0.2992324221358505
0.2939056815763693
0.28859458729372944
0.2832991576798631
0.2780194079880091
0.2727553504035809
0.26750699411299567
0.26227434537019356
0.25705740756076945
0.2518561812639081
0.24667066431182527
0.24150085184609854
0.23634673637071024
0.23120830780153004
0.22608555351211967
0.22097845837529145
0.21588700479930467
0.2108111727583044
0.20575093981653447
0.2007062811453868
0.19567716953199119
0.1906635753778955
0.18566546668644282
0.1806828090372069
0.17571556554525766
0.17076369680261536
0.1658271607988722
0.1609059128173574
0.15599990530252208
0.15110908769321263
0.14623340621528874
0.14137280362618443
0.13652721890177638
0.13169658685397284
0.12688083766473704
0.12207989631866484
0.11729368191167638
0.11252210680806882
0.10776507560997944
0.10302248389329036
0.09829421665058585
0.09358014636359131
0.08888013060288905
0.08419400901866074
0.07952159953872508
0.07486269352369697
0.0702170495346552
0.06558438523252906
0.060964366728452596
0.05635659440788857
0.05176058380147905
0.04717573938419734
0.04260131808327451
0.038036377496540374
0.03347970072286985
0.02892968402294698
0.024384160612466524
0.019840098767033118
0.015292978494019277
0.010735072257254681
0.0061505551766422445
0.001941835987503822
1.0754852939882606
1.0738441108178873
1.0710765584250184
1.0673579505770732
1.0630730348630293
1.0584780310263417
1.0537210961795727
1.0488807095830888
1.0439960090301064
1.0390852888440962
1.0341560605150177
1.0292103086749174
1.0242472464964207
1.019264793008048
1.0142603804102488
1.0092313949492127
1.0041754099574676
0.9990902988902741
0.9939742792543101
0.9888259176130231
0.9836441136345763
0.9784280737721457
0.973177280705191
0.967891461997021
0.9625705598422768
0.9572147028511917
0.9518241802785116
0.9463994188030423
0.9409409617986588
0.9354494509566766
0.9299256100762142
0.92437023082418
0.9187841602653591
0.9131682899755028
0.9075235465632888
0.9018508834419123
0.8961512737036992
0.890425703966047
0.8846751690718129
0.8789006675409828
0.8731031976819452
0.8672837542794624
0.8614433257854929
0.8555828919491519
0.8497034218304858
0.8438058721487091
0.8378911859202371
0.8319602913473343
0.8260141009242589
0.8200535107321607
0.8140793998966243
0.8080926301844142
0.8020940457196305
0.7960844728025791
0.7900647198164514
0.7840355772081061
0.777997817531365
0.7719521955433005
0.7658994483450341
0.7598402955591887
0.7537754395374348
0.7477055655925389
0.7416313422503917
0.735553421517794
0.7294724391623115
0.7233890150008249
0.7173037531942653
0.7112172425466458
0.7051300568065023
0.6990427549688618
0.6929558815762913
0.6868699670178295
0.6807855278252486
0.6747030669659532
0.6686230741316187
0.6625460260218912
0.6564723866228781
0.6504026074804211
0.6443371279677854
0.6382763755475109
0.6322207660272897
0.626170703809892
0.6201265821371899
0.6140887833284322
0.608057679012612
0.6020336303549444
0.596016988277741
0.5900080936758476
0.5840072776266354
0.578014861594704
0.5720311576314782
0.5660564685698988
0.5600910882143266
0.554135301525757
0.548189384802515
0.5422536058566768
0.5363282241863745
0.5304134911441076
0.5245096501011458
0.5186169366081145
0.5127355785520634
0.5068657963101802
0.5010078029002281
0.49516180412773275
0.4893279987300987
0.48350657851775036
0.47769772851252024
0.4719016270833815
0.4661184460794604
0.46034835096049986
0.4545915009249057
0.4488480490355402
0.4431181423432572
0.43740192200812367
0.4316995234184197
0.4260110763077103
0.4203367048700962
0.41467652787338516
0.40903065877029887
0.4033992058078135
0.39778227213481054
0.3921799559080381
0.3865923503963571
0.38101954408321986
0.3754616207675662
0.3699186596631137
0.3643907354960007
0.3588779186010017
0.3533802750160898
0.3478978665755947
0.3424307510017694
0.33697898199485254
0.3315426093216012
0.32612167890238947
0.320716232896843
0.3153263097878567
0.309951944464176
0.3045931683013285
0.2992500092411521
0.293922491869702
0.288610637493284
0.2833144642127786
0.27803398699642695
0.2727692177508161
0.2675201653897532
0.2622868359008275
0.25706923240991914
0.25186735524353954
0.24668120198846877
0.24151076754844458
0.23635604419762093
0.2312170216307567
0.22609368700986093
0.22098602500630424
0.2158940178378913
0.21081764530058633
0.2057568847942121
0.20071171134111943
0.19568209759657137
0.19066801384965992
0.18566942801347974
0.18068630560288163
0.17571860969764874
0.17076630088858358
0.16582933720372334
0.16090767401130887
0.15600126389541288
0.15111005649904907
0.14623399832907763
0.14137303251565372
0.13652709851752082
0.1316961317625952
0.12688006321072018
0.12207881882226351
0.1172923189129206
0.112520477369699
0.10776320069650142
0.1030203868493363
0.09829192380999661
0.09357768783240154
0.08887754127603098
0.08419132991403558
0.0795188795672441
0.07485999186589347
0.07021443887251681
0.06558195620471452
0.060962234163277715
0.056354906187669064
0.05175953369780759
0.047175586028451996
0.0426024136441436
0.038039212203620894
0.03348497404271565
0.028938422888673286
0.024397925158345296
0.0198613712872803
0.015325996482992665
0.01078811278180055
0.006242101416005379
0.00199281237309273
1.0671423640602105
1.0661032558389594
1.0641622364686412
1.0613852144090323
1.0580124061475442
1.054231754066339
1.0501735843240914
1.0459224474054538
1.0415315733461166
1.0370342847330578
1.032451614494458
1.0277970273528554
1.0230792766246184
1.0183041413854947
1.0134755033823635
1.0085960300476509
1.0036676163121447
0.9986916743059807
0.9936693245870767
0.9886015223157617
0.983489139840982
0.9783330198238108
0.9731340083644787
0.9678929745633207
0.9626108209286283
0.9572884876813669
0.9519269530685881
0.9465272311451673
0.9410903680309943
0.9356174373355934
0.930109535221641
0.9245677754203275
0.9189932844000333
0.9133871968144232
0.9077506513023881
0.9020847866774351
0.8963907385165593
0.8906696361424894
0.8849225999828473
0.8791507392825071
0.8733551501437539
0.8675369138664261
0.8616970955585633
0.8558367429895253
0.8499568856595452
0.8440585340616525
0.8381426791131135
0.8322102917348715
0.8262623225597021
0.8202997017523735
0.8143233389266953
0.8083341231456411
0.8023329229919858
0.7963205866987288
0.7902979423299423
0.7842657980036676
0.7782249421493946
0.7721761437938193
0.766120152869355
0.7600577005405225
0.7539894995437916
0.7479162445373624
0.7418386124580008
0.735757262882403
0.7296728383903939
0.7235859649279519
0.7174972521687681
0.7114072938731297
0.7053166682429214
0.6992259382716512
0.6931356520885604
0.6870463432964741
0.6809585313031301
0.6748727216454912
0.6687894063066948
0.6627090640253658
0.6566321605973837
0.6505591491701077
0.6444904705289545
0.6384265533762744
0.6323678146026916
0.6263146595511233
0.6202674822737724
0.6142266657819807
0.6081925822890164
0.6021655934461481
0.5961460505722546
0.5901342948771748
0.5841306576789398
0.5781354606150897
0.5721490158483429
0.5661716262667824
0.560203585678727
0.5542451790024816
0.5482966824512925
0.542358363713666
0.5364304821291958
0.5305132888600493
0.5246070270582508
0.5187119320290469
0.5128282313905476
0.5069561452297444
0.5010958862549656
0.49524765994497033
0.48941166469483
0.48358809195880204
0.4777771263903285
0.47197894597906553
0.46619372218509925
0.4604216200705594
0.4546627984288793
0.44891740991167384
0.4431856011531467
0.43746751289206076
0.43176328009157816
0.4260730320572078
0.42039689255266605
0.41473497991364344
0.4090874071595447
0.40345428210344986
0.3978357074603173
0.3922317809534098
0.3866425954188759
0.3810682389086494
0.3755087947917142
0.3699643418537248
0.3644349543951086
0.35892070232745393
0.35342165126841685
0.3479378626351266
0.34246939373601004
0.33701629786103326
0.331578624370496
0.32615641878239254
0.3207497228582025
0.31535857468725115
0.3099830087693971
0.3046230560962399
0.2992787442308822
0.29395009738595457
0.288637136499906
0.28333987931176596
0.27805834043428557
0.2727925314251959
0.26754246085627786
0.2623081343804646
0.2570895547970105
0.25188672211432506
0.2466996336102354
0.24152828388936948
0.23637266493759335
0.231232766173443
0.22610857449585095
0.22100007432755256
0.21590724765396757
0.21083007405704318
0.20576853074336166
0.20072259256547922
0.1956922320355286
0.1906774193300429
0.18567812228485792
0.18069430637841027
0.17572593470136366
0.17077296791047658
0.16583536416417727
0.1609130790368427
0.15600606540786738
0.15111427332122732
0.14623764981027437
0.14137613868150972
0.1365296802498892
0.13169821101650786
0.12688166327729894
0.1220799646495197
0.11729303749962233
0.11252079825220433
0.10776315655501262
0.10302001426883853
0.09829126424344967
0.09357678883093644
0.08887645807493967
0.0841901274978519
0.07951763538697126
0.07485879945430908
0.07021341271054668
0.06558123835389243
0.06096200342424477
0.05635539093091042
0.05176103011011197
0.047178484515280894
0.04260723769750592
0.03804667689031948
0.0334960757646031
0.028954581517154743
0.02442121428601695
0.01989491459815064
0.015374662752297846
0.010860019794586949
0.006351364196851641
0.002053331691523796
1.0601171855480132
1.0593584289748048
1.0578723930441085
1.0556677257720972
1.0528993238247237
1.0497027774566436
1.0461835304683698
1.0424181950558988
1.0384605017824047
1.0343476800428528
1.0301056310539598
1.0257526425875367
1.0213019057828305
1.0167631789312017
1.0121438816403652
1.0074498184971494
1.0026856630730205
0.9978552860072456
0.9929619804653276
0.9880086190875327
0.982997764510356
0.9779317479555261
0.972812725543277
0.9676427188643938
0.9624236443028902
0.9571573342477464
0.9518455524220375
0.9464900049266425
0.9410923481582165
0.9356541944481481
0.9301771160485359
0.9246626479269312
0.919112289712509
0.9135275070452747
0.9079097325138774
0.9022603663184882
0.8965807767576609
0.8908723006106349
0.885136243465714
0.8793738800281493
0.8735864544305963
0.8677751805615089
0.8619412424205393
0.8560857945049243
0.8502099622273755
0.8443148423644931
0.8384015035340621
0.8324709866981379
0.8265243056880244
0.8205624477468567
0.8145863740862662
0.8085970204538875
0.8025952977082432
0.7965820923973732
0.790558267338324
0.7845246621951442
0.7784820940533144
0.7724313579885975
0.7663732276285058
0.7603084557048687
0.7542377745963242
0.7481618968599029
0.7420815157512098
0.7359973057322894
0.7299099229665011
0.7238200058002677
0.7177281752316376
0.7116350353656994
0.7055411738566739
0.6994471623364729
0.693353556829965
0.6872608981573749
0.681169712323971
0.6750805108973257
0.6689937913722489
0.6629100375237696
0.6568297197486561
0.650753295395752
0.6446812090853391
0.6386138930179135
0.6325517672728642
0.6264952400976508
0.6204447081875366
0.6144005569561315
0.6083631607972432
0.602332883338402
0.5963100776865061
0.5902950866658189
0.5842882430486273
0.5782898697789379
0.5723002801894843
0.566319778212317
0.56034865858321
0.554387207040318
0.5484357005173277
0.542494407331281
0.5365635873652839
0.5306434922463137
0.5247343655184621
0.5188364428118556
0.5129499520073911
0.5070751133973521
0.5012121398421568
0.4953612369234466
0.489522603093778
0.4836964298230831
0.4778829017418207
0.4720821967808861
0.4662944863085584
0.4605199352648328
0.45475870229318643
0.44901093986964613
0.44327679442916423
0.4375564064895303
0.4318499107731966
0.4261574363269178
0.42047910663914645
0.41481503975518974
0.4091653483904082
0.4035301400415523
0.39790951709619654
0.39230357694022217
0.3867124120634431
0.3811361101634986
0.3755747542480803
0.3700284227355625
0.3644971895538089
0.35898112423735234
0.3534802920230873
0.34799475394435153
0.3425245669233511
0.3370697838620741
0.3316304537317344
0.3262066216606636
0.32079832902076844
0.3154056135123519
0.31002850924730313
0.30466704683091544
0.29932125344212046
0.29399115291201267
0.2886767658007994
0.2833781094732077
0.2780951981722193
0.2728280430907737
0.26757665244159284
0.26234103152521215
0.25712118279597146
0.2519171059257675
0.24672879786531082
0.24155625290272603
0.2363994627195567
0.23125841644377748
0.2261331006991813
0.221023499650976
0.21592959504723513
0.21085136625572817
0.2057887902953474
0.20074184186136937
0.1957104933436931
0.19069471483731285
0.1856944741438339
0.18070973676236707
0.1757404658682734
0.17078662227790642
0.16584816439726643
0.16092504815177391
0.1560172268940359
0.15112465128587224
0.1462472691502999
0.14138502528851654
0.13653786125584916
0.13170571508918477
0.12688852097741188
0.12208620886487256
0.11729870397575556
0.11252592624514487
0.10776778963958905
0.10302420134691286
0.09829506081135922
0.09358025858587837
0.08887967496857486
0.08419317838579606
0.07952062347971461
0.07486184885734368
0.07021667445827916
0.06558489851738532
0.06096629412238925
0.05636060546793681
0.051767544007699964
0.04718678514585878
0.04261796640445562
0.03806068989938001
0.0335145323640624
0.028979074988585485
0.024453960746563787
0.019939040547920766
0.015434572146922811
0.010941965555953491
0.006463978442851161
0.002115172484175724
1.054067533404206
1.0534688975187474
1.0522666066508912
1.0504401023470322
1.0480919438072382
1.0453205395834824
1.0422096339389193
1.0388255820336598
1.035218798680523
1.0314267863092854
1.0274772774627108
1.0233908872450712
1.019183144705607
1.0148659712721033
1.0104487285940436
1.005938952026457
1.001342861962741
0.9966657206147068
0.9919120819355213
0.9870859677237208
0.9821909926148172
0.9772304535365499
0.972207394326607
0.9671246528845112
0.9619848959579448
0.9567906451094378
0.9515442963495404
0.9462481351866342
0.9409043483369584
0.935515032979521
0.9300822041942423
0.9246078010429425
0.9190936916316632
0.9135416773991594
0.9079534968132714