# vtk DataFile Version 3.0
jCFD simulation data
ASCII
DATASET UNSTRUCTURED_GRID
POINTS 8241 double
0.0 0.0 0.0
0.5 0.0 0.0
0.0 0.1 0.0
0.5 0.1 0.0
0.0025 0.0 0.0
0.005 0.0 0.0
0.0075 0.0 0.0
0.01 0.0 0.0
0.0125 0.0 0.0
0.015 0.0 0.0
0.0175 0.0 0.0
0.02 0.0 0.0
0.0225 0.0 0.0
0.025 0.0 0.0
0.0275 0.0 0.0
0.03 0.0 0.0
0.0325 0.0 0.0
0.035 0.0 0.0
0.0375 0.0 0.0
0.04 0.0 0.0
0.0425 0.0 0.0
0.045 0.0 0.0
0.0475 0.0 0.0
0.05 0.0 0.0
0.0525 0.0 0.0
0.055 0.0 0.0
0.0575 0.0 0.0
0.06 0.0 0.0
0.0625 0.0 0.0
0.065 0.0 0.0
0.0675 0.0 0.0
0.07 0.0 0.0
0.0725 0.0 0.0
0.075 0.0 0.0
0.0775 0.0 0.0
0.08 0.0 0.0
0.0825 0.0 0.0
0.085 0.0 0.0
0.08750000000000001 0.0 0.0
0.09 0.0 0.0
0.0925 0.0 0.0
0.095 0.0 0.0
0.0975 0.0 0.0
0.1 0.0 0.0
0.10250000000000001 0.0 0.0
0.105 0.0 0.0
0.1075 0.0 0.0
0.11 0.0 0.0
0.1125 0.0 0.0
0.115 0.0 0.0
0.11750000000000001 0.0 0.0
0.12 0.0 0.0
0.1225 0.0 0.0
0.125 0.0 0.0
0.1275 0.0 0.0
0.13 0.0 0.0
0.1325 0.0 0.0
0.135 0.0 0.0
0.1375 0.0 0.0
0.14 0.0 0.0
0.14250000000000002 0.0 0.0
0.145 0.0 0.0
0.1475 0.0 0.0
0.15 0.0 0.0
0.1525 0.0 0.0
0.155 0.0 0.0
0.1575 0.0 0.0
0.16 0.0 0.0
0.1625 0.0 0.0
0.165 0.0 0.0
0.1675 0.0 0.0
0.17 0.0 0.0
0.17250000000000001 0.0 0.0
0.17500000000000002 0.0 0.0
0.1775 0.0 0.0
0.18 0.0 0.0
0.1825 0.0 0.0
0.185 0.0 0.0
0.1875 0.0 0.0
0.19 0.0 0.0
0.1925 0.0 0.0
0.195 0.0 0.0
0.1975 0.0 0.0
0.2 0.0 0.0
0.2025 0.0 0.0
0.20500000000000002 0.0 0.0
0.20750000000000002 0.0 0.0
0.21 0.0 0.0
0.2125 0.0 0.0
0.215 0.0 0.0
0.2175 0.0 0.0
0.22 0.0 0.0
0.2225 0.0 0.0
0.225 0.0 0.0
0.2275 0.0 0.0
0.23 0.0 0.0
0.2325 0.0 0.0
0.23500000000000001 0.0 0.0
0.23750000000000002 0.0 0.0
0.24 0.0 0.0
0.2425 0.0 0.0
0.245 0.0 0.0
0.2475 0.0 0.0
0.25 0.0 0.0
0.2525 0.0 0.0
0.255 0.0 0.0
0.2575 0.0 0.0
0.26 0.0 0.0
0.2625 0.0 0.0
0.265 0.0 0.0
0.2675 0.0 0.0
0.27 0.0 0.0
0.2725 0.0 0.0
0.275 0.0 0.0
0.2775 0.0 0.0
0.28 0.0 0.0
0.28250000000000003 0.0 0.0
0.28500000000000003 0.0 0.0
0.28750000000000003 0.0 0.0
0.29 0.0 0.0
0.2925 0.0 0.0
0.295 0.0 0.0
0.2975 0.0 0.0
0.3 0.0 0.0
0.3025 0.0 0.0
0.305 0.0 0.0
0.3075 0.0 0.0
0.31 0.0 0.0
0.3125 0.0 0.0
0.315 0.0 0.0
0.3175 0.0 0.0
0.32 0.0 0.0
0.3225 0.0 0.0
0.325 0.0 0.0
0.3275 0.0 0.0
0.33 0.0 0.0
0.3325 0.0 0.0
0.335 0.0 0.0
0.3375 0.0 0.0
0.34 0.0 0.0
0.3425 0.0 0.0
0.34500000000000003 0.0 0.0
0.34750000000000003 0.0 0.0
0.35000000000000003 0.0 0.0
0.3525 0.0 0.0
0.355 0.0 0.0
0.3575 0.0 0.0
0.36 0.0 0.0
0.3625 0.0 0.0
0.365 0.0 0.0
0.3675 0.0 0.0
0.37 0.0 0.0
0.3725 0.0 0.0
0.375 0.0 0.0
0.3775 0.0 0.0
0.38 0.0 0.0
0.3825 0.0 0.0
0.385 0.0 0.0
0.3875 0.0 0.0
0.39 0.0 0.0
0.3925 0.0 0.0
0.395 0.0 0.0
0.3975 0.0 0.0
0.4 0.0 0.0
0.4025 0.0 0.0
0.405 0.0 0.0
0.40750000000000003 0.0 0.0
0.41000000000000003 0.0 0.0
0.41250000000000003 0.0 0.0
0.41500000000000004 0.0 0.0
0.4175 0.0 0.0
0.42 0.0 0.0
0.4225 0.0 0.0
0.425 0.0 0.0
0.4275 0.0 0.0
0.43 0.0 0.0
0.4325 0.0 0.0
0.435 0.0 0.0
0.4375 0.0 0.0
0.44 0.0 0.0
0.4425 0.0 0.0
0.445 0.0 0.0
0.4475 0.0 0.0
0.45 0.0 0.0
0.4525 0.0 0.0
0.455 0.0 0.0
0.4575 0.0 0.0
0.46 0.0 0.0
0.4625 0.0 0.0
0.465 0.0 0.0
0.4675 0.0 0.0
0.47000000000000003 0.0 0.0
0.47250000000000003 0.0 0.0
0.47500000000000003 0.0 0.0
0.47750000000000004 0.0 0.0
0.48 0.0 0.0
0.4825 0.0 0.0
0.485 0.0 0.0
0.4875 0.0 0.0
0.49 0.0 0.0
0.4925 0.0 0.0
0.495 0.0 0.0
0.4975 0.0 0.0
0.0025 0.1 0.0
0.005 0.1 0.0
0.0075 0.1 0.0
0.01 0.1 0.0
0.0125 0.1 0.0
0.015 0.1 0.0
0.0175 0.1 0.0
0.02 0.1 0.0
0.0225 0.1 0.0
0.025 0.1 0.0
0.0275 0.1 0.0
0.03 0.1 0.0
0.0325 0.1 0.0
0.035 0.1 0.0
0.0375 0.1 0.0
0.04 0.1 0.0
0.0425 0.1 0.0
0.045 0.1 0.0
0.0475 0.1 0.0
0.05 0.1 0.0
0.0525 0.1 0.0
0.055 0.1 0.0
0.0575 0.1 0.0
0.06 0.1 0.0
0.0625 0.1 0.0
0.065 0.1 0.0
0.0675 0.1 0.0
0.07 0.1 0.0
0.0725 0.1 0.0
0.075 0.1 0.0
0.0775 0.1 0.0
0.08 0.1 0.0
0.0825 0.1 0.0
0.085 0.1 0.0
0.08750000000000001 0.1 0.0
0.09 0.1 0.0
0.0925 0.1 0.0
0.095 0.1 0.0
0.0975 0.1 0.0
0.1 0.1 0.0
0.10250000000000001 0.1 0.0
0.105 0.1 0.0
0.1075 0.1 0.0
0.11 0.1 0.0
0.1125 0.1 0.0
0.115 0.1 0.0
0.11750000000000001 0.1 0.0
0.12 0.1 0.0
0.1225 0.1 0.0
0.125 0.1 0.0
0.1275 0.1 0.0
0.13 0.1 0.0
0.1325 0.1 0.0
0.135 0.1 0.0
0.1375 0.1 0.0
0.14 0.1 0.0
0.14250000000000002 0.1 0.0
0.145 0.1 0.0
0.1475 0.1 0.0
0.15 0.1 0.0
0.1525 0.1 0.0
0.155 0.1 0.0
0.1575 0.1 0.0
0.16 0.1 0.0
0.1625 0.1 0.0
0.165 0.1 0.0
0.1675 0.1 0.0
0.17 0.1 0.0
0.17250000000000001 0.1 0.0
0.17500000000000002 0.1 0.0
0.1775 0.1 0.0
0.18 0.1 0.0
0.1825 0.1 0.0
0.185 0.1 0.0
0.1875 0.1 0.0
0.19 0.1 0.0
0.1925 0.1 0.0
0.195 0.1 0.0
0.1975 0.1 0.0
0.2 0.1 0.0
0.2025 0.1 0.0
0.20500000000000002 0.1 0.0
0.20750000000000002 0.1 0.0
0.21 0.1 0.0
0.2125 0.1 0.0
0.215 0.1 0.0
0.2175 0.1 0.0
0.22 0.1 0.0
0.2225 0.1 0.0
0.225 0.1 0.0
0.2275 0.1 0.0
0.23 0.1 0.0
0.2325 0.1 0.0
0.23500000000000001 0.1 0.0
0.23750000000000002 0.1 0.0
0.24 0.1 0.0
0.2425 0.1 0.0
0.245 0.1 0.0
0.2475 0.1 0.0
0.25 0.1 0.0
0.2525 0.1 0.0
0.255 0.1 0.0
0.2575 0.1 0.0
0.26 0.1 0.0
0.2625 0.1 0.0
0.265 0.1 0.0
0.2675 0.1 0.0
0.27 0.1 0.0
0.2725 0.1 0.0
0.275 0.1 0.0
0.2775 0.1 0.0
0.28 0.1 0.0
0.28250000000000003 0.1 0.0
0.28500000000000003 0.1 0.0
0.28750000000000003 0.1 0.0
0.29 0.1 0.0
0.2925 0.1 0.0
0.295 0.1 0.0
0.2975 0.1 0.0
0.3 0.1 0.0
0.3025 0.1 0.0
0.305 0.1 0.0
0.3075 0.1 0.0
0.31 0.1 0.0
0.3125 0.1 0.0
0.315 0.1 0.0
0.3175 0.1 0.0
0.32 0.1 0.0
0.3225 0.1 0.0
0.325 0.1 0.0
0.3275 0.1 0.0
0.33 0.1 0.0
0.3325 0.1 0.0
0.335 0.1 0.0
0.3375 0.1 0.0
0.34 0.1 0.0
0.3425 0.1 0.0
0.34500000000000003 0.1 0.0
0.34750000000000003 0.1 0.0
0.35000000000000003 0.1 0.0
0.3525 0.1 0.0
0.355 0.1 0.0
0.3575 0.1 0.0
0.36 0.1 0.0
0.3625 0.1 0.0
0.365 0.1 0.0
0.3675 0.1 0.0
0.37 0.1 0.0
0.3725 0.1 0.0
0.375 0.1 0.0
0.3775 0.1 0.0
0.38 0.1 0.0
0.3825 0.1 0.0
0.385 0.1 0.0
0.3875 0.1 0.0
0.39 0.1 0.0
0.3925 0.1 0.0
0.395 0.1 0.0
0.3975 0.1 0.0
0.4 0.1 0.0
0.4025 0.1 0.0
0.405 0.1 0.0
0.40750000000000003 0.1 0.0
0.41000000000000003 0.1 0.0
0.41250000000000003 0.1 0.0
0.41500000000000004 0.1 0.0
0.4175 0.1 0.0
0.42 0.1 0.0
0.4225 0.1 0.0
0.425 0.1 0.0
0.4275 0.1 0.0
0.43 0.1 0.0
0.4325 0.1 0.0
0.435 0.1 0.0
0.4375 0.1 0.0
0.44 0.1 0.0
0.4425 0.1 0.0
0.445 0.1 0.0
0.4475 0.1 0.0
0.45 0.1 0.0
0.4525 0.1 0.0
0.455 0.1 0.0
0.4575 0.1 0.0
0.46 0.1 0.0
0.4625 0.1 0.0
0.465 0.1 0.0
0.4675 0.1 0.0
0.47000000000000003 0.1 0.0
0.47250000000000003 0.1 0.0
0.47500000000000003 0.1 0.0
0.47750000000000004 0.1 0.0
0.48 0.1 0.0
0.4825 0.1 0.0
0.485 0.1 0.0
0.4875 0.1 0.0
0.49 0.1 0.0
0.4925 0.1 0.0
0.495 0.1 0.0
0.4975 0.1 0.0
0.0 0.0025 0.0
0.0 0.005 0.0
0.0 0.0075 0.0
0.0 0.01 0.0
0.0 0.0125 0.0
0.0 0.015 0.0
0.0 0.0175 0.0
0.0 0.02 0.0
0.0 0.0225 0.0
0.0 0.025 0.0
0.0 0.0275 0.0
0.0 0.03 0.0
0.0 0.0325 0.0
0.0 0.035 0.0
0.0 0.0375 0.0
0.0 0.04 0.0
0.0 0.0425 0.0
0.0 0.045 0.0
0.0 0.0475 0.0
0.0 0.05 0.0
0.0 0.0525 0.0
0.0 0.055 0.0
0.0 0.0575 0.0
0.0 0.06 0.0
0.0 0.0625 0.0
0.0 0.065 0.0
0.0 0.0675 0.0
0.0 0.07 0.0
0.0 0.0725 0.0
0.0 0.075 0.0
0.0 0.0775 0.0
0.0 0.08 0.0
0.0 0.0825 0.0
0.0 0.085 0.0
0.0 0.08750000000000001 0.0
0.0 0.09 0.0
0.0 0.0925 0.0
0.0 0.095 0.0
0.0 0.0975 0.0
0.5 0.0025 0.0
0.5 0.005 0.0
0.5 0.0075 0.0
0.5 0.01 0.0
0.5 0.0125 0.0
0.5 0.015 0.0
0.5 0.0175 0.0
0.5 0.02 0.0
0.5 0.0225 0.0
0.5 0.025 0.0
0.5 0.0275 0.0
0.5 0.03 0.0
0.5 0.0325 0.0
0.5 0.035 0.0
0.5 0.0375 0.0
0.5 0.04 0.0
0.5 0.0425 0.0
0.5 0.045 0.0
0.5 0.0475 0.0
0.5 0.05 0.0
0.5 0.0525 0.0
0.5 0.055 0.0
0.5 0.0575 0.0
0.5 0.06 0.0
0.5 0.0625 0.0
0.5 0.065 0.0
0.5 0.0675 0.0
0.5 0.07 0.0
0.5 0.0725 0.0
0.5 0.075 0.0
0.5 0.0775 0.0
0.5 0.08 0.0
0.5 0.0825 0.0
0.5 0.085 0.0
0.5 0.08750000000000001 0.0
0.5 0.09 0.0
0.5 0.0925 0.0
0.5 0.095 0.0
0.5 0.0975 0.0
0.0025 0.0025 0.0
0.005 0.0025 0.0
0.0075 0.0025 0.0
0.01 0.0025 0.0
0.0125 0.0025 0.0
0.015 0.0025 0.0
0.0175 0.0025 0.0
0.02 0.0025 0.0
0.0225 0.0025 0.0
0.025 0.0025 0.0
0.0275 0.0025 0.0
0.03 0.0025 0.0
0.0325 0.0025 0.0
0.035 0.0025 0.0
0.0375 0.0025 0.0
0.04 0.0025 0.0
0.0425 0.0025 0.0
0.045 0.0025 0.0
0.0475 0.0025 0.0
0.05 0.0025 0.0
0.0525 0.0025 0.0
0.055 0.0025 0.0
0.0575 0.0025 0.0
0.06 0.0025 0.0
0.0625 0.0025 0.0
0.065 0.0025 0.0
0.0675 0.0025 0.0
0.07 0.0025 0.0
0.0725 0.0025 0.0
0.075 0.0025 0.0
0.0775 0.0025 0.0
0.08 0.0025 0.0
0.0825 0.0025 0.0
0.085 0.0025 0.0
0.08750000000000001 0.0025 0.0
0.09 0.0025 0.0
0.0925 0.0025 0.0
0.095 0.0025 0.0
0.0975 0.0025 0.0
0.1 0.0025 0.0
0.10250000000000001 0.0025 0.0
0.105 0.0025 0.0
0.1075 0.0025 0.0
0.11 0.0025 0.0
0.1125 0.0025 0.0
0.115 0.0025 0.0
0.11750000000000001 0.0025 0.0
0.12 0.0025 0.0
0.1225 0.0025 0.0
0.125 0.0025 0.0
0.1275 0.0025 0.0
0.13 0.0025 0.0
0.1325 0.0025 0.0
0.135 0.0025 0.0
0.1375 0.0025 0.0
0.14 0.0025 0.0
0.14250000000000002 0.0025 0.0
0.145 0.0025 0.0
0.1475 0.0025 0.0
0.15 0.0025 0.0
0.1525 0.0025 0.0
0.155 0.0025 0.0
0.1575 0.0025 0.0
0.16 0.0025 0.0
0.1625 0.0025 0.0
0.165 0.0025 0.0
0.1675 0.0025 0.0
0.17 0.0025 0.0
0.17250000000000001 0.0025 0.0
0.17500000000000002 0.0025 0.0
0.1775 0.0025 0.0
0.18 0.0025 0.0
0.1825 0.0025 0.0
0.185 0.0025 0.0
0.1875 0.0025 0.0
0.19 0.0025 0.0
0.1925 0.0025 0.0
0.195 0.0025 0.0
0.1975 0.0025 0.0
0.2 0.0025 0.0
0.2025 0.0025 0.0
0.20500000000000002 0.0025 0.0
0.20750000000000002 0.0025 0.0
0.21 0.0025 0.0
0.2125 0.0025 0.0
0.215 0.0025 0.0
0.2175 0.0025 0.0
0.22 0.0025 0.0
0.2225 0.0025 0.0
0.225 0.0025 0.0
0.2275 0.0025 0.0
0.23 0.0025 0.0
0.2325 0.0025 0.0
0.23500000000000001 0.0025 0.0
0.23750000000000002 0.0025 0.0
0.24 0.0025 0.0
0.2425 0.0025 0.0
0.245 0.0025 0.0
0.2475 0.0025 0.0
0.25 0.0025 0.0
0.2525 0.0025 0.0
0.255 0.0025 0.0
0.2575 0.0025 0.0
0.26 0.0025 0.0
0.2625 0.0025 0.0
0.265 0.0025 0.0
0.2675 0.0025 0.0
0.27 0.0025 0.0
0.2725 0.0025 0.0
0.275 0.0025 0.0
0.2775 0.0025 0.0
0.28 0.0025 0.0
0.28250000000000003 0.0025 0.0
0.28500000000000003 0.0025 0.0
0.28750000000000003 0.0025 0.0
0.29 0.0025 0.0
0.2925 0.0025 0.0
0.295 0.0025 0.0
0.2975 0.0025 0.0
0.3 0.0025 0.0
0.3025 0.0025 0.0
0.305 0.0025 0.0
0.3075 0.0025 0.0
0.31 0.0025 0.0
0.3125 0.0025 0.0
0.315 0.0025 0.0
0.3175 0.0025 0.0
0.32 0.0025 0.0
0.3225 0.0025 0.0
[...]
CELL_DATA 8000
SCALARS phi float 1
LOOKUP_TABLE CellColors
0.8222393490388507
0.8181153006198868
0.8140493336560376
0.8099864790163374
0.8061968294262813
0.8026897600682399
0.7993933089176437
0.7962385100853978
0.7931764785326819
0.790174629969964
0.7872107678452183
0.7842690529304444
0.7813376916859378
0.7784076392060727
0.7754718314517928
0.7725246915789009
0.769561792430243
0.766579611098358
0.7635753453892041
0.7605467744753792
0.7574921509610901
0.7544101154335386
0.7512996288167422
0.7481599188960553
0.7449904355639904
0.7417908144920922
0.7385608467616105
0.7353004550685682
0.7320096715906164
0.728688621144831
0.7253375046457295
0.7219565898045159
0.7185461955118686
0.7151066874635175
0.7116384660148498
0.7081419632627902
0.7046176350944475
0.7010659550443599
0.6974874132593192
0.6938825108698726
0.6902517565952322
0.6865956656118457
0.6829147559599446
0.6792095464926566
0.6754805565075015
0.6717283037270189
0.6679533024505516
0.6641560633146416
0.6603370926585868
0.6564968912406748
0.6526359537188337
0.6487547685650388
0.6448538175614521
0.6409335753390445
0.6369945093393179
0.6330370796906026
0.629061738850594
0.62506893149803
0.6210590947204074
0.6170326580454887
0.6129900432636235
0.6089316644155224
0.6048579280048253
0.6007692331169234
0.5966659713507528
0.5925485268169538
0.588417276330041
0.5842725896146812
0.5801148293791816
0.57594435135857
0.5717615044566059
0.5675666309207325
0.5633600664223123
0.5591421400775632
0.554913174552722
0.5506734862790303
0.5464233856460009
0.5421631770764581
0.5378931590523315
0.5336136242194197
0.5293248595825546
0.5250271466789703
0.5207207616462948
0.5164059752314761
0.5120830528491465
0.5077522547275423
0.5034138360776654
0.49906804720806947
0.4947151335820491
0.4903553358761171
0.48598889008138774
0.4816160276273783
0.47723697547910104
0.4728519561904124
0.4684611879449985
0.4640648846256691
0.4596632559179396
0.4552565074178272
0.45084484071392633
0.4464284534440952
0.442007539351024
0.4375822883544797
0.4331528866326041
0.42871951669037683
0.4242823574053245
0.4198415840648808
0.4153973684205036
0.41094987876938066
0.4064992800486827
0.40204573391372034
0.3975893987822161
0.39313042985250624
0.3886689791222695
0.38420519543170206
0.3797392245347319
0.3752712091811359
0.37080128918695654
0.36632960148242755
0.36185628014440446
0.35738145642984237
0.35290525882218193
0.348427813089136
0.3439492423396466
0.3394696670677482
0.3349892051808968
0.330507972021984
0.32602608039895187
0.32154364063061536
0.31706076060617555
0.3125775458469301
0.3080940995575067
0.3036105226605759
0.29912691381833634
0.2946433694502351
0.29015998375634006
0.2856768487508084
0.2811940543036574
0.27671168818507674
0.2722298361062688
0.2677485817536429
0.26326800681713086
0.2587881910162792
0.2543092121280537
0.24983114601787462
0.24535406667193074
0.24087804622680425
0.2364031549935003
0.2319294614762603
0.2274570323893541
0.22298593267509603
0.2185162255239015
0.21404797239453607
0.20958123303161535
0.2051160654775962
0.20065252607684436
0.1961906694698336
0.1917305485772252
0.18727221457616766
0.1828157168723291
0.178361103069138
0.17390841893210846
0.1694577083442776
0.16500901324932876
0.1605623735790942
0.15611782716037753
0.15167540959503534
0.14723515410950666
0.14279709137255792
0.13836124927814353
0.13392765268526058
0.12949632310452905
0.12506727832228226
0.1206405319504037
0.11621609288276424
0.11179396463490378
0.10737414454429685
0.10295662280309839
0.09854138128048387
0.0941283920797468
0.08971761576587892
0.08530899917446742
0.08090247267405748
0.07649794671567985
0.07209530744791148
0.06769441108202398
0.06329507656203529
0.05889707590790747
0.05450012130909395
0.05010384758538343
0.045707787898698254
0.0413113394224408
0.036913713665074656
0.03251386265522373
0.028110366016547247
0.023701252367901438
0.01928370630282517
0.01485356875349236
0.010404466211643839
0.005927107932625273
0.0018597485045270235
0.8153433237226905
0.8135297015643441
0.8110891113773057
0.8081685030795025
0.8050808365020719
0.8019795461730769
0.7989193929765149
0.795909668297049
0.7929430876087392
0.7900081188193441
0.7870933998665732
0.78418901350868
0.7812866692847396
0.7783795543782431
0.7754621095004854
0.7725298165460819
0.7695790145213942
0.7666067467083096
0.763610638711731
0.7605887980778057
0.7575397328646378
0.7544622850480754
0.751355576766358
0.7482189661630831
0.7450520088616266
0.7418544279302177
0.738626087169685
0.7353669697496001
0.7320771579214529
0.7287568196679806
0.7254061923614414
0.7220255746463907
0.7186153120438532
0.7151757925508866
0.7117074368325637
0.7082106931010743
0.704686032025645
0.7011339403619676
0.6975549188139198
0.6939494783629778
0.6903181362696926
0.6866614144855021
0.6829798376124365
0.6792739305937237
0.6755442174190139
0.671791219878302
0.6680154562609594
0.6642174405696458
0.6603976818819659
0.6565566835859263
0.6526949427519825
0.6488129497432304
0.6449111879787643
0.6409901337544339
0.6370502559774447
0.6330920158483878
0.6291158667463825
0.6251222543413139
0.6211116166338531
0.617084383819387
0.6130409782241886
0.6089818144458305
0.6049072995046365
0.6008178328531941
0.5967138063670819
0.592595604462274
0.5884636042693161
0.584318175736476
0.5801596816962477
0.5759884780017216
0.5718049137077785
0.5676093311801675
0.5634020661240541
0.5591834476557813
0.5549537984873776
0.550713435135154
0.5464626680334412
0.5422018015685168
0.5379311341534846
0.5336509584034025
0.529361561333956
0.5250632244757718
0.5207562238998142
0.5164408302490329
0.5121173088508937
0.5077859198848821
0.5034469185243676
0.49910055501596684
0.4947470747344166
0.4903867182676645
0.48601972153776224
0.4816463159153227
0.4772667282927432
0.47288118112802635
0.4684898925001748
0.46409307619940227
0.4596909418358948
0.4552836949340981
0.4508715369994415
0.44645466557433455
0.44203327430681705
0.43760755303437904
0.4331776878629048
0.4287438612216604
0.42430625189844573
0.4198650350800691
0.4154203824206625
0.410972462135834
0.4065214390966312
0.4020674748950282
0.39761072787385154
0.39315135314044247
0.38868950259358626
0.38422532498048656
0.37975896597675246
0.3752905682666233
0.37082027160374453
0.3663482128497931
0.3618745260045245
0.35739934224428527
0.3529227899758179
0.34844499489776676
0.3439660800550974
0.33948616587661046
0.33500537019823895
0.33052380828517613
0.3260415928666325
0.32155883418818004
0.31707564007484657
0.31259211599143893
0.3081083650887588
0.3036244882330129
0.29914058402467913
0.29465674881717646
0.29017307674351983
0.285689659753244
0.28120658765607487
0.27672394816601725
0.27224182694039956
0.2677603076119347
0.26327947181587175
0.25879939921660905
0.25432016753732284
0.24984185259278488
0.24536452832201813
0.24088826681653236
0.23641313834238606
0.23193921135807788
0.22746655253212536
0.222995226762835
0.21852529719990738
0.2140568252656057
0.2095898706728551
0.20512449143758266
0.20066074388238608
0.1961986826295042
0.1917383605839608
0.18727982891060335
0.18282313700846364
0.17836833248238892
0.17391546110892206
0.16946456679335242
0.16501569151550943
0.16056887526009403
0.15612415592496476
0.15168156920210793
0.14724114843012118
0.14280292441765438
0.13836692523253916
0.13393317594756007
0.12950169833504788
0.1250725105028591
0.12064562645801201
0.1162210555772762
0.11179880196452296
0.10737886367642406
0.10296123178876407
0.09854588926019937
0.0941328095435605
0.08972195488821823
0.08531327424902034
0.08090670068052778
0.07650214806896041
0.07209950700500284
0.06769863950976812
0.06329937222535786
0.05890148753052453
0.05450471178489067
0.05010869954996097
0.045713012075598115
0.04131708742589403
0.03692019815096288
0.032521389833727925
0.028119389003654433
0.02371245810381587
0.019298145986796363
0.01487278089411231
0.010430155125445057
0.00595753206027593
0.0018743030938139981
0.8096133465762204
0.8087031655543826
0.8071686247387551
0.8051054102298341
0.8027255911081471
0.8001698360279548
0.7975190354108045
0.7948155820884374
0.7920801918131266
0.7893221586838552
0.7865449255983732
0.783748985491876
0.7809333929167266
0.7780965654156556
0.7752367162067347
0.7723520866860515
0.7694410644011741
0.766502237567535
0.7635344147018104
0.7605366217449324
0.75750808921736
0.7544482352470241
0.7513566460764185
0.7482330569133406
0.7450773327858109
0.7418894533192035
0.7386694959283874
0.7354176229129364
0.7321340678138584
0.7288191265529571
0.7254731467226725
0.7220965193690535
0.7186896717011338
0.715253060420722
0.7117871671005378
0.7082924926042975
0.7047695525136686
0.7012188739101518
0.6976409926340608
0.6940364500940222
0.6904057907634065
0.6867495606243291
0.6830683053140515
0.6793625684451401
0.6756328905730349
0.6718798081620783
0.6681038526310124
0.6643055497697702
0.6604854191385279
0.6566439733913698
0.6527817178890625
0.6488991505357672
0.6449967615594208
0.6410750332695125
0.6371344399071177
0.6331754475469581
0.6291985140424465
0.6252040890604795
0.6211926141441009
0.6171645227165299
0.613120240080307
0.6090601835034046
0.6049847623591209
0.6008943782300412
0.5967894249744721
0.5926702888193134
0.588537348499356
0.5843909754088117
0.5802315337409539
0.5760593806159358
0.5718748661927794
0.5676783337658962
0.5634701198754847
0.5592505544616486
0.5550199610405739
0.5507786568442743
0.5465269529042832
0.5422651541300398
0.5379935594406463
0.5337124619407704
0.5294221490739494
0.5251229027106851
0.5208149992017177
0.5164987094595388
0.5121742990903625
0.507842028539828
0.5035021532066841
0.49915492352089663
0.4948005850199265
0.49043937844878943
0.48607153987323826
0.4816973007769162
0.4773168881311015
0.4729305244548434
0.4685384278898771
0.46414081229435167
0.4597378873378756
0.45532985858121106
0.45091692754303675
0.4464992917697671
0.44207714491724387
0.4376506768343943
0.43322007363048387
0.42878551771969675
0.42434718785792297
0.4199052591956742
0.4154599033583431
0.4110112885412494
0.4065595795928694
0.40210493806734443
0.39764752225013
0.3931874871796271
0.38872498468822697
0.38426016346931335
0.3797931691568798
0.3753241443966897
0.3708532288966724
0.36638055946085035
0.3619062700221889
0.35743049168770746
0.3529533527970558
0.34847497898377244
0.34399549322562745
0.3395150158783222
0.33503366469881374
0.33055155487172694
0.32606879904979685
0.32158550740946784
0.3171017877127557
0.31261774536285186
0.30813348344518665
0.3036491027541852
0.29916470181300303
0.29468037689549464
0.29019622205648343
0.28571232917088324
0.2812287879775594
0.27674568612207834
0.2722631091939512
0.26778114075754655
0.26329986237944564
0.25881935365648473
0.254339692247044
0.24986095390447208
0.24538321250875966
0.24090654009301077
0.23643100686452417
0.2319566812234202
0.2274836297821678
0.2230119173872353
0.2185416071418122
0.2140727604276599
0.20960543692390923
0.20513969461986134
0.20067558981849729
0.19621317712929284
0.1917525094525775
0.18729363795956147
0.1828366120701849
0.17838147942747032
0.17392828586591919
0.16947707537228332
0.16502789003604293
0.16058076998368556
0.1561357532901977
0.15169287586516556
0.14725217131409502
0.1428136707727523
0.1383774027076036
0.1339433926754647
0.1295116630372669
0.12508223261694018
0.12065511628974933
0.11623032448365714
0.1118078625793011
0.10738773018947484
0.10296992029020217
0.09855441817003303
0.09414120015767552
0.08973023207426396
0.08532146733770823
0.08091484462544528
0.07651028497592445
0.07210768816747598
0.06770692815504774
0.06330784728192045
0.05891024887750906
0.05451388768940192
0.050118457416408316
0.04572357431279418
0.041328755397057014
0.03693338928498028
0.03253669681159031
0.028137677529489764
0.02373503612024746
0.019327080050482306
0.014911567645354618
0.010485499158112843
0.006044652908912868
0.0019213373255677747
0.8048854436321788
0.8043079543869186
0.803228956535293
0.8016841376040829
0.7998058812143249
0.7976974037737999
0.7954300152513725
0.7930497022781329
0.7905851506429604
0.7880540743814205
0.7854674434120905
0.782832100959407
0.7801523452223014
0.77743088788719
0.7746694469458577
0.7718691187493811
0.769030617036562
0.7661544291197332
0.7632409159543185
0.7602903772038692
0.7573030934270761
0.7542793525823724
0.751219464461451
0.7481237694908605
0.744992641839882
0.741826491326132
0.738625760341148
0.7353909220734143
0.7321224779710817
0.7288209525755011
0.725486892294555
0.7221208588739331
0.7187234294208732
0.7152951909501745
0.7118367385440696
0.7083486728200481
0.7048315972078961
0.7012861164384567
0.6977128346923391
0.6941123539951284
0.6904852726581537
0.6868321841632715
0.6831536767525218
0.6794503324620552
0.6757227257979365
0.6719714233940146
0.6681969841446355
0.6643999586377625
0.6605808884039147
0.6567403058515255
0.6528787344316598
0.648996688421427
0.6450946726804023
0.6411731827575113
0.6372327050301742
0.6332737166185852
0.6292966853581938
0.6253020700194403
0.6212903205065796
0.6172618778489829
0.613217174210365
0.6091566331188734
0.6050806697553158
0.6009896910725386
0.5968840958108848
0.5927642746201479
0.588630610313204
0.5844834780932314
0.5803232456677934
0.576150273329148
0.5719649140974479
0.5677675139157244
0.5635584118298695
0.5593379401315626
0.555106424490079
0.5508641840888425
0.5466115317568973
0.5423487740921279
0.5380762115923469
0.5337941388025798
0.5295028444601547
0.5252026116139918
0.5208937177208718
0.5165764347452374
0.5122510292802384
0.507917762679102
0.5035768911729074
0.4992286659659908
0.49487333332202454
0.49051113465725155
0.4861423066426619
0.4817670813040284
0.477385686111001
0.472998344057486
0.46860527374100774
0.46420668944444177
0.4598028012176497
0.4553938149571413
0.4509799324865672
0.4465613516411784
0.4421382663526253
0.43771086672391013
0.4332793390870749
0.428843866048296
0.4244046265360334
0.41996179586667637
0.41551554582822764
0.41106604476701664
0.40661345765840723
0.40215794615350237
0.3976996686110719
0.3932387801335642
0.3887754326210063
0.38430977484158324
0.379841952504888
0.375372108322626
0.3709003820518326
0.3664269105285619
0.3619518277056926
0.3574752647033585
0.35299734986933573
0.34851820883834883
0.3440379645796746
0.3395567374307919
0.33507464512452056
0.33059180282113265
0.32610832315281746
0.32162431627910343
0.31713988994458625
0.3126551495291192
0.30817019808537177
0.30368513636565714
0.299200062844742
0.29471507374585254
0.29023026307394134
0.2857457226558322
0.28126154218340343
0.27677780925491735
0.27229460941115025
0.2678120261662339
0.2633301410360999
0.25884903356813216
0.25436878137345104
0.24988946015990626
0.245411143762217
0.24093390416720592
0.23645781153524914
0.23198293422090163
0.22750933879484
0.22303709006720282
0.21856625111125144
0.21409688328607468
0.20962904625635614
0.20516279800584789
0.20069819484134663
0.19623529138690793
0.19177414057148717
0.18731479361346018
0.18285730000262626
0.1784017074781603
0.17394806200147656
0.16949640772299587
0.1650467869387438
0.16059924002986453
0.15615380538042173
0.15171051927376594
0.1472694157679298
0.14283052654564263
0.1383938807325878
0.13395950468040801
0.12952742171008053
0.12509765180396654
0.12067021123196597
0.11624511210255015
0.11182236182879222
0.10740196248859496
0.10298391005483881
0.09856819347591783
0.09415479357675896
0.08974368173196981
0.08533481826074961
0.08092815048572255
0.07652361036840663
0.07212111161509599
0.06772054613072367
0.06332177966223561
0.058924646437817224
0.054528942575857664
0.05013441802007726
0.04574076677355236
0.04134761530524328
0.036954509442976874
0.03256090089663101
0.02816613714833668
0.023769463058562184
0.019370059024092185
0.014967158751975962
0.010560465905125027
0.006150655941828056
0.001978298871739721
0.8008891646937266
0.8004661035262173
0.7996371988597422
0.7984065305808202
0.7968594489483574
0.7950704129711662
0.7930971706362311
0.7909815153753369
0.7887525909006415
0.7864304293814548
0.7840288190424555
0.7815573632427952
0.7790228754014169
0.7764303018080112
0.773783327021992
0.7710847731567809
0.7683368687774359
0.7655414289106978
0.7626999775936577
0.759813833591637
0.7568841696998363
0.7539120547230851
0.7508984820374645
0.7478443910818681
0.7447506813283881
0.741618222633488
0.7384478622015638
0.7352404283417199
0.7319967364570183
0.728717587384591
0.7254037713985304
0.7220560667415289
0.7186752417973866
0.7152620536378125
0.7118172486135559
0.7083415620848912
0.7048357176883219
0.7013004275978346
0.6977363919822918
0.6941442989003982
0.6905248242832752
0.6868786313954716
0.6832063709161083
0.6795086811513213
0.6757861877121526
0.6720395035200123
0.6682692291889444
0.6644759530193665
0.6606602508725904
0.6568226864459138
0.6529638116034079
0.6490841664663632
0.6451842795533849
0.6412646680683673
0.6373258380913893
0.6333682847055275
0.6293924922934381
0.6253989349004165
0.6213880763964621
0.6173603705306094
0.6133162611785686
0.6092561827609869
0.605180560530995
0.601089810651982
0.5969843403078189
0.5928645480022802
0.5887308238986713
0.5845835500073358
0.5804231002652243
0.576249840684865
0.5720641296175902
0.5678663180131708
0.5636567495875714
0.5594357609458748
0.5552036817435976
0.5509608348840954
0.5467075366877332
0.5424440970110307
0.5381708193641792
0.5338880010720088
0.5295959334591078
0.525294902005246
0.5209851864530873
0.5166670609037448
0.5123407939404223
0.5080066487775328
0.5036648833984306
0.49931575065656325
0.4949594983528554
0.4905963693219776
0.486226601544221
0.48185042826996427
0.4774680781313321
0.47307977522857403
0.4686857391997365
0.4642861852914041
0.4598813244415878
0.4554713633735158
0.45105650469183145
0.4466369469727436
0.44221288484319277
0.43778450904801514
0.433352006508146
0.42891556037675727
0.4244753501014086
0.4200315514963256
0.4155843368211706
0.4111338748565622
0.4066803309674332
0.40222386715315656
0.39776464209242346
0.3933028111938717
0.3888385266579538
0.38437193754575677
0.37990318984417115
0.3754324265187646
0.37095978755426595
0.36648540999097223
0.36200942796736735
0.35753197277359866
0.3530531729117305
0.34857315415344337
0.3440920395876164
0.3396099496573245
0.3351270021927224
0.33064331244826456
0.32615899314873664
0.3216741545419753
0.3171889044515266
0.31270334832256325
0.30821758925833626
0.3037317280493186
0.2992458632001319
0.2947600909593086
0.29027450535458815
0.28578919823327503
0.28130425930460734
0.27681977618022646
0.2723358344101357
0.26785251751434364
0.263369907012792
0.25888808245633
0.254407121459234
0.24992709973115798
0.24544809110592905
0.24097016756662148
0.23649339926870655
0.2320178545634381
0.22754360002218818
0.22307070046119676
0.21859921896620693
0.21412921691634937
0.20966075400515044
0.2051938882550045
0.2007286760225683
0.19626517199607404
0.19180342918791168
0.18734349892454766
0.18288543083333017
0.17842927282548984
0.17397507107560578
0.1695228699959266
0.16507271219987257
0.1606246384485402
0.1561786875787561
0.15173489641447982
0.147293299660275
0.1428539297715156
0.138416816797499
0.1339819881960806
0.1295494686141077
0.12511927962171734
0.12069143939060813
0.1162659623119916
0.11184285854580758
0.10742213348351386
0.10300378710856593
0.09858781324446741
0.09417419866973652
0.08976292206733577
0.08535395278393658
0.08094724937148325
0.0765427578638015
0.07214040975171242
0.06774011963047653
0.0633417824865444
0.05894527064015915
0.054550430431814755
0.050157078846338826
0.04576500057984019
0.041373946497166
0.03698363552857397
0.032593763643912255
0.028204028116871116
0.023814179707267104
0.019424138848285265
0.01503420050987228
0.010645576288973915
0.0062608180799217815
0.0020369932593698624
0.7974362095018096
0.7971011589865994
0.7964279471572652
0.7954044624679958
0.7940872006134319
0.7925301762984631
0.7907792515348542
0.7888706602133844
0.7868318247000003
0.7846830393349976
0.7824392096783093
0.7801113217099819
0.77770756616174
0.7752341560219138
0.772695905801342
0.7700966374021975
0.7674394640071001
0.7647269864775976
0.7619614320494834
0.7591447522050008
0.7562786909123191
0.7533648341055459
0.7504046450335095
0.7473994901159229
0.744350657842562
0.741259370892473
0.7381267983304218
0.7349540617022111
0.7317422420316545
0.7284923828740758
0.7252054939634759
0.7218825543919244