# vtk DataFile Version 3.0
jCFD simulation data
ASCII
DATASET UNSTRUCTURED_GRID
POINTS 8241 double
0.0 0.0 0.0
0.5 0.0 0.0
0.0 0.1 0.0
0.5 0.1 0.0
0.0025 0.0 0.0
0.005 0.0 0.0
0.0075 0.0 0.0
0.01 0.0 0.0
0.0125 0.0 0.0
0.015 0.0 0.0
0.0175 0.0 0.0
0.02 0.0 0.0
0.0225 0.0 0.0
0.025 0.0 0.0
0.0275 0.0 0.0
0.03 0.0 0.0
0.0325 0.0 0.0
0.035 0.0 0.0
0.0375 0.0 0.0
0.04 0.0 0.0
0.0425 0.0 0.0
0.045 0.0 0.0
0.0475 0.0 0.0
0.05 0.0 0.0
0.0525 0.0 0.0
0.055 0.0 0.0
0.0575 0.0 0.0
0.06 0.0 0.0
0.0625 0.0 0.0
0.065 0.0 0.0
0.0675 0.0 0.0
0.07 0.0 0.0
0.0725 0.0 0.0
0.075 0.0 0.0
0.0775 0.0 0.0
0.08 0.0 0.0
0.0825 0.0 0.0
0.085 0.0 0.0
0.08750000000000001 0.0 0.0
0.09 0.0 0.0
0.0925 0.0 0.0
0.095 0.0 0.0
0.0975 0.0 0.0
0.1 0.0 0.0
0.10250000000000001 0.0 0.0
0.105 0.0 0.0
0.1075 0.0 0.0
0.11 0.0 0.0
0.1125 0.0 0.0
0.115 0.0 0.0
0.11750000000000001 0.0 0.0
0.12 0.0 0.0
0.1225 0.0 0.0
0.125 0.0 0.0
0.1275 0.0 0.0
0.13 0.0 0.0
0.1325 0.0 0.0
0.135 0.0 0.0
0.1375 0.0 0.0
0.14 0.0 0.0
0.14250000000000002 0.0 0.0
0.145 0.0 0.0
0.1475 0.0 0.0
0.15 0.0 0.0
0.1525 0.0 0.0
0.155 0.0 0.0
0.1575 0.0 0.0
0.16 0.0 0.0
0.1625 0.0 0.0
0.165 0.0 0.0
0.1675 0.0 0.0
0.17 0.0 0.0
0.17250000000000001 0.0 0.0
0.17500000000000002 0.0 0.0
0.1775 0.0 0.0
0.18 0.0 0.0
0.1825 0.0 0.0
0.185 0.0 0.0
0.1875 0.0 0.0
0.19 0.0 0.0
0.1925 0.0 0.0
0.195 0.0 0.0
0.1975 0.0 0.0
0.2 0.0 0.0
0.2025 0.0 0.0
0.20500000000000002 0.0 0.0
0.20750000000000002 0.0 0.0
0.21 0.0 0.0
0.2125 0.0 0.0
0.215 0.0 0.0
0.2175 0.0 0.0
0.22 0.0 0.0
0.2225 0.0 0.0
0.225 0.0 0.0
0.2275 0.0 0.0
0.23 0.0 0.0
0.2325 0.0 0.0
0.23500000000000001 0.0 0.0
0.23750000000000002 0.0 0.0
0.24 0.0 0.0
0.2425 0.0 0.0
0.245 0.0 0.0
0.2475 0.0 0.0
0.25 0.0 0.0
0.2525 0.0 0.0
0.255 0.0 0.0
0.2575 0.0 0.0
0.26 0.0 0.0
0.2625 0.0 0.0
0.265 0.0 0.0
0.2675 0.0 0.0
0.27 0.0 0.0
0.2725 0.0 0.0
0.275 0.0 0.0
0.2775 0.0 0.0
0.28 0.0 0.0
0.28250000000000003 0.0 0.0
0.28500000000000003 0.0 0.0
0.28750000000000003 0.0 0.0
0.29 0.0 0.0
0.2925 0.0 0.0
0.295 0.0 0.0
0.2975 0.0 0.0
0.3 0.0 0.0
0.3025 0.0 0.0
0.305 0.0 0.0
0.3075 0.0 0.0
0.31 0.0 0.0
0.3125 0.0 0.0
0.315 0.0 0.0
0.3175 0.0 0.0
0.32 0.0 0.0
0.3225 0.0 0.0
0.325 0.0 0.0
0.3275 0.0 0.0
0.33 0.0 0.0
0.3325 0.0 0.0
0.335 0.0 0.0
0.3375 0.0 0.0
0.34 0.0 0.0
0.3425 0.0 0.0
0.34500000000000003 0.0 0.0
0.34750000000000003 0.0 0.0
0.35000000000000003 0.0 0.0
0.3525 0.0 0.0
0.355 0.0 0.0
0.3575 0.0 0.0
0.36 0.0 0.0
0.3625 0.0 0.0
0.365 0.0 0.0
0.3675 0.0 0.0
0.37 0.0 0.0
0.3725 0.0 0.0
0.375 0.0 0.0
0.3775 0.0 0.0
0.38 0.0 0.0
0.3825 0.0 0.0
0.385 0.0 0.0
0.3875 0.0 0.0
0.39 0.0 0.0
0.3925 0.0 0.0
0.395 0.0 0.0
0.3975 0.0 0.0
0.4 0.0 0.0
0.4025 0.0 0.0
0.405 0.0 0.0
0.40750000000000003 0.0 0.0
0.41000000000000003 0.0 0.0
0.41250000000000003 0.0 0.0
0.41500000000000004 0.0 0.0
0.4175 0.0 0.0
0.42 0.0 0.0
0.4225 0.0 0.0
0.425 0.0 0.0
0.4275 0.0 0.0
0.43 0.0 0.0
0.4325 0.0 0.0
0.435 0.0 0.0
0.4375 0.0 0.0
0.44 0.0 0.0
0.4425 0.0 0.0
0.445 0.0 0.0
0.4475 0.0 0.0
0.45 0.0 0.0
0.4525 0.0 0.0
0.455 0.0 0.0
0.4575 0.0 0.0
0.46 0.0 0.0
0.4625 0.0 0.0
0.465 0.0 0.0
0.4675 0.0 0.0
0.47000000000000003 0.0 0.0
0.47250000000000003 0.0 0.0
0.47500000000000003 0.0 0.0
0.47750000000000004 0.0 0.0
0.48 0.0 0.0
0.4825 0.0 0.0
0.485 0.0 0.0
0.4875 0.0 0.0
0.49 0.0 0.0
0.4925 0.0 0.0
0.495 0.0 0.0
0.4975 0.0 0.0
0.0025 0.1 0.0
0.005 0.1 0.0
0.0075 0.1 0.0
0.01 0.1 0.0
0.0125 0.1 0.0
0.015 0.1 0.0
0.0175 0.1 0.0
0.02 0.1 0.0
0.0225 0.1 0.0
0.025 0.1 0.0
0.0275 0.1 0.0
0.03 0.1 0.0
0.0325 0.1 0.0
0.035 0.1 0.0
0.0375 0.1 0.0
0.04 0.1 0.0
0.0425 0.1 0.0
0.045 0.1 0.0
0.0475 0.1 0.0
0.05 0.1 0.0
0.0525 0.1 0.0
0.055 0.1 0.0
0.0575 0.1 0.0
0.06 0.1 0.0
0.0625 0.1 0.0
0.065 0.1 0.0
0.0675 0.1 0.0
0.07 0.1 0.0
0.0725 0.1 0.0
0.075 0.1 0.0
0.0775 0.1 0.0
0.08 0.1 0.0
0.0825 0.1 0.0
0.085 0.1 0.0
0.08750000000000001 0.1 0.0
0.09 0.1 0.0
0.0925 0.1 0.0
0.095 0.1 0.0
0.0975 0.1 0.0
0.1 0.1 0.0
0.10250000000000001 0.1 0.0
0.105 0.1 0.0
0.1075 0.1 0.0
0.11 0.1 0.0
0.1125 0.1 0.0
0.115 0.1 0.0
0.11750000000000001 0.1 0.0
0.12 0.1 0.0
0.1225 0.1 0.0
0.125 0.1 0.0
0.1275 0.1 0.0
0.13 0.1 0.0
0.1325 0.1 0.0
0.135 0.1 0.0
0.1375 0.1 0.0
0.14 0.1 0.0
0.14250000000000002 0.1 0.0
0.145 0.1 0.0
0.1475 0.1 0.0
0.15 0.1 0.0
0.1525 0.1 0.0
0.155 0.1 0.0
0.1575 0.1 0.0
0.16 0.1 0.0
0.1625 0.1 0.0
0.165 0.1 0.0
0.1675 0.1 0.0
0.17 0.1 0.0
0.17250000000000001 0.1 0.0
0.17500000000000002 0.1 0.0
0.1775 0.1 0.0
0.18 0.1 0.0
0.1825 0.1 0.0
0.185 0.1 0.0
0.1875 0.1 0.0
0.19 0.1 0.0
0.1925 0.1 0.0
0.195 0.1 0.0
0.1975 0.1 0.0
0.2 0.1 0.0
0.2025 0.1 0.0
0.20500000000000002 0.1 0.0
0.20750000000000002 0.1 0.0
0.21 0.1 0.0
0.2125 0.1 0.0
0.215 0.1 0.0
0.2175 0.1 0.0
0.22 0.1 0.0
0.2225 0.1 0.0
0.225 0.1 0.0
0.2275 0.1 0.0
0.23 0.1 0.0
0.2325 0.1 0.0
0.23500000000000001 0.1 0.0
0.23750000000000002 0.1 0.0
0.24 0.1 0.0
0.2425 0.1 0.0
0.245 0.1 0.0
0.2475 0.1 0.0
0.25 0.1 0.0
0.2525 0.1 0.0
0.255 0.1 0.0
0.2575 0.1 0.0
0.26 0.1 0.0
0.2625 0.1 0.0
0.265 0.1 0.0
0.2675 0.1 0.0
0.27 0.1 0.0
0.2725 0.1 0.0
0.275 0.1 0.0
0.2775 0.1 0.0
0.28 0.1 0.0
0.28250000000000003 0.1 0.0
0.28500000000000003 0.1 0.0
0.28750000000000003 0.1 0.0
0.29 0.1 0.0
0.2925 0.1 0.0
0.295 0.1 0.0
0.2975 0.1 0.0
0.3 0.1 0.0
0.3025 0.1 0.0
0.305 0.1 0.0
0.3075 0.1 0.0
0.31 0.1 0.0
0.3125 0.1 0.0
0.315 0.1 0.0
0.3175 0.1 0.0
0.32 0.1 0.0
0.3225 0.1 0.0
0.325 0.1 0.0
0.3275 0.1 0.0
0.33 0.1 0.0
0.3325 0.1 0.0
0.335 0.1 0.0
0.3375 0.1 0.0
0.34 0.1 0.0
0.3425 0.1 0.0
0.34500000000000003 0.1 0.0
0.34750000000000003 0.1 0.0
0.35000000000000003 0.1 0.0
0.3525 0.1 0.0
0.355 0.1 0.0
0.3575 0.1 0.0
0.36 0.1 0.0
0.3625 0.1 0.0
0.365 0.1 0.0
0.3675 0.1 0.0
0.37 0.1 0.0
0.3725 0.1 0.0
0.375 0.1 0.0
0.3775 0.1 0.0
0.38 0.1 0.0
0.3825 0.1 0.0
0.385 0.1 0.0
0.3875 0.1 0.0
0.39 0.1 0.0
0.3925 0.1 0.0
0.395 0.1 0.0
0.3975 0.1 0.0
0.4 0.1 0.0
0.4025 0.1 0.0
0.405 0.1 0.0
0.40750000000000003 0.1 0.0
0.41000000000000003 0.1 0.0
0.41250000000000003 0.1 0.0
0.41500000000000004 0.1 0.0
0.4175 0.1 0.0
0.42 0.1 0.0
0.4225 0.1 0.0
0.425 0.1 0.0
0.4275 0.1 0.0
0.43 0.1 0.0
0.4325 0.1 0.0
0.435 0.1 0.0
0.4375 0.1 0.0
0.44 0.1 0.0
0.4425 0.1 0.0
0.445 0.1 0.0
0.4475 0.1 0.0
0.45 0.1 0.0
0.4525 0.1 0.0
0.455 0.1 0.0
0.4575 0.1 0.0
0.46 0.1 0.0
0.4625 0.1 0.0
0.465 0.1 0.0
0.4675 0.1 0.0
0.47000000000000003 0.1 0.0
0.47250000000000003 0.1 0.0
0.47500000000000003 0.1 0.0
0.47750000000000004 0.1 0.0
0.48 0.1 0.0
0.4825 0.1 0.0
0.485 0.1 0.0
0.4875 0.1 0.0
0.49 0.1 0.0
0.4925 0.1 0.0
0.495 0.1 0.0
0.4975 0.1 0.0
0.0 0.0025 0.0
0.0 0.005 0.0
0.0 0.0075 0.0
0.0 0.01 0.0
0.0 0.0125 0.0
0.0 0.015 0.0
0.0 0.0175 0.0
0.0 0.02 0.0
0.0 0.0225 0.0
0.0 0.025 0.0
0.0 0.0275 0.0
0.0 0.03 0.0
0.0 0.0325 0.0
0.0 0.035 0.0
0.0 0.0375 0.0
0.0 0.04 0.0
0.0 0.0425 0.0
0.0 0.045 0.0
0.0 0.0475 0.0
0.0 0.05 0.0
0.0 0.0525 0.0
0.0 0.055 0.0
0.0 0.0575 0.0
0.0 0.06 0.0
0.0 0.0625 0.0
0.0 0.065 0.0
0.0 0.0675 0.0
0.0 0.07 0.0
0.0 0.0725 0.0
0.0 0.075 0.0
0.0 0.0775 0.0
0.0 0.08 0.0
0.0 0.0825 0.0
0.0 0.085 0.0
0.0 0.08750000000000001 0.0
0.0 0.09 0.0
0.0 0.0925 0.0
0.0 0.095 0.0
0.0 0.0975 0.0
0.5 0.0025 0.0
0.5 0.005 0.0
0.5 0.0075 0.0
0.5 0.01 0.0
0.5 0.0125 0.0
0.5 0.015 0.0
0.5 0.0175 0.0
0.5 0.02 0.0
0.5 0.0225 0.0
0.5 0.025 0.0
0.5 0.0275 0.0
0.5 0.03 0.0
0.5 0.0325 0.0
0.5 0.035 0.0
0.5 0.0375 0.0
0.5 0.04 0.0
0.5 0.0425 0.0
0.5 0.045 0.0
0.5 0.0475 0.0
0.5 0.05 0.0
0.5 0.0525 0.0
0.5 0.055 0.0
0.5 0.0575 0.0
0.5 0.06 0.0
0.5 0.0625 0.0
0.5 0.065 0.0
0.5 0.0675 0.0
0.5 0.07 0.0
0.5 0.0725 0.0
0.5 0.075 0.0
0.5 0.0775 0.0
0.5 0.08 0.0
0.5 0.0825 0.0
0.5 0.085 0.0
0.5 0.08750000000000001 0.0
0.5 0.09 0.0
0.5 0.0925 0.0
0.5 0.095 0.0
0.5 0.0975 0.0
0.0025 0.0025 0.0
0.005 0.0025 0.0
0.0075 0.0025 0.0
0.01 0.0025 0.0
0.0125 0.0025 0.0
0.015 0.0025 0.0
0.0175 0.0025 0.0
0.02 0.0025 0.0
0.0225 0.0025 0.0
0.025 0.0025 0.0
0.0275 0.0025 0.0
0.03 0.0025 0.0
0.0325 0.0025 0.0
0.035 0.0025 0.0
0.0375 0.0025 0.0
0.04 0.0025 0.0
0.0425 0.0025 0.0
0.045 0.0025 0.0
0.0475 0.0025 0.0
0.05 0.0025 0.0
0.0525 0.0025 0.0
0.055 0.0025 0.0
0.0575 0.0025 0.0
0.06 0.0025 0.0
0.0625 0.0025 0.0
0.065 0.0025 0.0
0.0675 0.0025 0.0
0.07 0.0025 0.0
0.0725 0.0025 0.0
0.075 0.0025 0.0
0.0775 0.0025 0.0
0.08 0.0025 0.0
0.0825 0.0025 0.0
0.085 0.0025 0.0
0.08750000000000001 0.0025 0.0
0.09 0.0025 0.0
0.0925 0.0025 0.0
0.095 0.0025 0.0
0.0975 0.0025 0.0
0.1 0.0025 0.0
0.10250000000000001 0.0025 0.0
0.105 0.0025 0.0
0.1075 0.0025 0.0
0.11 0.0025 0.0
0.1125 0.0025 0.0
0.115 0.0025 0.0
0.11750000000000001 0.0025 0.0
0.12 0.0025 0.0
0.1225 0.0025 0.0
0.125 0.0025 0.0
0.1275 0.0025 0.0
0.13 0.0025 0.0
0.1325 0.0025 0.0
0.135 0.0025 0.0
0.1375 0.0025 0.0
0.14 0.0025 0.0
0.14250000000000002 0.0025 0.0
0.145 0.0025 0.0
0.1475 0.0025 0.0
0.15 0.0025 0.0
0.1525 0.0025 0.0
0.155 0.0025 0.0
0.1575 0.0025 0.0
0.16 0.0025 0.0
0.1625 0.0025 0.0
0.165 0.0025 0.0
0.1675 0.0025 0.0
0.17 0.0025 0.0
0.17250000000000001 0.0025 0.0
0.17500000000000002 0.0025 0.0
0.1775 0.0025 0.0
0.18 0.0025 0.0
0.1825 0.0025 0.0
0.185 0.0025 0.0
0.1875 0.0025 0.0
0.19 0.0025 0.0
0.1925 0.0025 0.0
0.195 0.0025 0.0
0.1975 0.0025 0.0
0.2 0.0025 0.0
0.2025 0.0025 0.0
0.20500000000000002 0.0025 0.0
0.20750000000000002 0.0025 0.0
0.21 0.0025 0.0
0.2125 0.0025 0.0
0.215 0.0025 0.0
0.2175 0.0025 0.0
0.22 0.0025 0.0
0.2225 0.0025 0.0
0.225 0.0025 0.0
0.2275 0.0025 0.0
0.23 0.0025 0.0
0.2325 0.0025 0.0
0.23500000000000001 0.0025 0.0
0.23750000000000002 0.0025 0.0
0.24 0.0025 0.0
0.2425 0.0025 0.0
0.245 0.0025 0.0
0.2475 0.0025 0.0
0.25 0.0025 0.0
0.2525 0.0025 0.0
0.255 0.0025 0.0
0.2575 0.0025 0.0
0.26 0.0025 0.0
0.2625 0.0025 0.0
0.265 0.0025 0.0
0.2675 0.0025 0.0
0.27 0.0025 0.0
0.2725 0.0025 0.0
0.275 0.0025 0.0
0.2775 0.0025 0.0
0.28 0.0025 0.0
0.28250000000000003 0.0025 0.0
0.28500000000000003 0.0025 0.0
0.28750000000000003 0.0025 0.0
0.29 0.0025 0.0
0.2925 0.0025 0.0
0.295 0.0025 0.0
0.2975 0.0025 0.0
0.3 0.0025 0.0
0.3025 0.0025 0.0
0.305 0.0025 0.0
0.3075 0.0025 0.0
0.31 0.0025 0.0
0.3125 0.0025 0.0
0.315 0.0025 0.0
0.3175 0.0025 0.0
0.32 0.0025 0.0
0.3225 0.0025 0.0
[...]
CELL_DATA 8000
SCALARS phi float 1
LOOKUP_TABLE CellColors
1.4021166903745104
1.088794609136321
0.9150219351310607
0.8035519891172542
0.7327607426747729
0.6879116438861083
0.6583253586475366
0.6375352632722007
0.6218913271419183
0.6093875555677454
0.5989140894870718
0.5898334873311826
0.5817578691255468
0.574435719204959
0.5676944169350513
0.5614101420571751
0.5554912041280365
0.5498681498225437
0.544487488181363
0.5393074885043266
0.5342952518513996
0.5294246117255028
0.5246745978289327
0.5200282935207816
0.5154719743308618
0.5109944503693458
0.5065865587023544
0.5022407674289058
0.4979508639619767
0.4937117075185444
0.489519031109394
0.4853692820830288
0.4812594929858285
0.47718717646966813
0.4731502394256393
0.469146912598077
0.46517569274093645
0.4612352949917029
0.4573246136081248
0.4534426895770256
0.4495886838888651
0.4457618554959438
0.44196154315037117
0.4381871504607
0.4344381336213242
0.4307139913622994
0.427014256743691
0.4233384904813558
0.41968627554290006
0.41605721279553237
0.4124509175232852
0.4088670166609192
0.4053051466168005
0.401764951577981
0.3982460822083006
0.3947481946651263
0.3912709498727882
0.38781401300125673
0.3843770531074244
0.3809597429037864
0.37756175862554964
0.3741827799724518
0.370822490105962
0.36748057568622106
0.3641567269361505
0.36085063772271997
0.3575620056474905
0.35429053214030604
0.3510359225514565
0.3477978862388228
0.34457613664747877
0.34137039138000974
0.33818037225643505
0.33500580536312097
0.3318464210904624
0.3287019541594143
0.3255721436371853
0.3224567329425743
0.3193554698415527
0.316268106433775
0.31319439913075087
0.3101341086264367
0.30708699986100485
0.3040528419785443
0.3010314082794163
0.29802247616796423
0.29502582709623426
0.2920412465043263
0.2890685237579471
0.2861074520836977
0.28315782850257737
0.2802194537621461
0.2772921322677442
0.27437567201312457
0.2714698845108182
0.26857458472251305
0.26568959098969497
0.2628147249647676
0.2599498115428361
0.2570946787943174
0.2542491578985109
0.25141308307824334
0.24858629153568357
0.2457686233893983
0.24295992161271338
0.24016003197342134
0.2373688029748704
0.2345860857984537
0.23181173424751272
0.2290456046926545
0.22628755601848116
0.22353744957171756
0.22079514911072406
0.21806052075636934
0.21533343294424295
0.21261375637817542
0.20990136398503867
0.2071961308707928
0.20449793427774537
0.20180665354298893
0.19912217005797986
0.1964443672292237
0.1937731304400288
0.19110834701329438
0.18844990617529364
0.18579769902042076
0.18315161847686134
0.18051155927315807
0.17787741790563158
0.1752490926066299
0.17262648331356942
0.17000949163874035
0.16739802083984304
0.16479197579122928
0.16219126295581746
0.15959579035765706
0.15700546755511305
0.15442020561464834
0.15183991708517533
0.14926451597295584
0.14669391771702406
0.14412803916510922
0.14156679855003673
0.13901011546658454
0.13645791084877407
0.133910106947572
0.1313666273089841
0.12882739675251537
0.12629234134997713
0.12376138840461479
0.12123446643053451
0.11871150513240164
0.11619243538538573
0.11367718921532063
0.11116569977905147
0.10865790134493017
0.10615372927342503
0.10365311999779965
0.10115601100481596
0.09866234081540567
0.0961720489652523
0.09368507598521057
0.09120136338148775
0.0887208536154925
0.08624349008324818
0.08376921709424731
0.08129797984960463
0.07882972441934538
0.07636439771863207
0.07390194748271084
0.07144232224030023
0.06898547128512338
0.06653134464519964
0.06407989304946315
0.061631067891211644
0.05918482118766242
0.056741105535146906
0.05429987405837676
0.051861080354204836
0.04942467842529062
0.046990622608953994
0.04455886748492092
0.042129367788817
0.03970207826885044
0.03727695360190592
0.034853948123726164
0.03243301584748621
0.030014109814933552
0.02759718263341915
0.02518218464038852
0.02276906625699524
0.02035777365618506
0.017948251692321154
0.015540457866868735
0.013134255638333637
0.010729965615032389
0.008325724794663768
0.005929834779393748
0.003496710330349812
0.0011241510081669024
1.1183307124947697
0.990107154171497
0.8881650441433766
0.8080667798230341
0.7488471325746753
0.7061626162152598
0.6750389892743384
0.6516874473495812
0.6335500220535153
0.6189582132932081
0.6068305184736428
0.5964595269280878
0.5873736554585095
0.5792508189534354
0.571865289126331
0.5650548878675722
0.5587004418133285
0.5527126365194575
0.5470233923823489
0.541580059894089
0.5363414158143336
0.5312748391648278
0.5263542791849873
0.5215587669085601
0.5168713074741573
0.5122780439430147
0.5077676179147763
0.5033306749283444
0.49895947785207817
0.49464760184796736
0.49038969168558266
0.4861812672342061
0.48201856655846187
0.47789841863534105
0.4738181396014084
0.4697754478338596
0.46576839420935534
0.4617953046685485
0.45785473281105116
0.4539454207043535
0.45006626644611336
0.4462162972977718
0.44239464742726914
0.4386005394734608
0.4348332692849157
0.43109219329877435
0.42737671811707983
0.4236862919128921
0.4200203973599639
0.4163785458304555
0.4127602726471348
0.40916513321139786
0.40559269985753077
0.4020425593079483
0.3985143106245151
0.3950075635681567
0.39152193729333734
0.3880570593160753
0.3846125647043446
0.38118809544828514
0.3777832999748637
0.3743978327776972
0.3710313541378685
0.36768352991585296
0.3643540313982775
0.3610425351862533
0.35774872311454387
0.3544722821929367
0.35121290456293197
0.34797028746431674
0.3447441332073866
0.3415341491475633
0.33834004765996234
0.33516154611211874
0.33199836683360956
0.32885023708173544
0.3257168890027591
0.3225980595884644
0.31949349062800225
0.3164029286551443
0.313326124891179
0.3102628351837684
0.3072128199421341
0.30417584406897974
0.30115167688957034
0.2981400920783946
0.2951408675838282
0.2921537855512047
0.289178632244679
0.28621519796824485
0.2832632769862447
0.2803226674436808
0.27739317128660734
0.2744745941828596
0.2715667454433443
0.268669437944093
0.26578248804925175
0.2629057155351597
0.26003894351564455
0.2571819983686443
0.2543347096642442
0.25149691009420116
0.2486684354030136
0.24584912432057626
0.2430388184964538
0.24023736243578653
0.23744460343684154
0.2346603915302044
0.23188457941960722
0.22911702242437387
0.22635757842346613
0.22360610780110113
0.2208624733939144
0.2181265404396319
0.21539817652721832
0.212677251548462
0.2099636376509575
0.20725720919244545
0.2045578426964672
0.20186541680929398
0.19917981225808562
0.1965009118102398
0.1938286002338868
0.19116276425949186
0.18850329254252035
0.18585007562713018
0.18320300591084787
0.18056197761019493
0.17792688672722284
0.1752976310169246
0.17267410995548454
0.17005622470933549
0.16744387810498737
0.16483697459959884
0.16223542025225823
0.15963912269594735
0.15704799111015655
0.15446193619412676
0.15188087014068855
0.14930470661067483
0.14673336070788
0.14416674895454176
0.14160478926732095
0.13904740093375628
0.13649450458917026
0.13394602219400248
0.13140187701154857
0.12886199358607858
0.12632629772131265
0.12379471645922696
0.1212671780591664
0.11874361197723404
0.11622394884593168
0.11370812045401636
0.11119605972654309
0.10868770070505249
0.10618297852786601
0.10368182941044105
0.10118419062573626
0.09869000048452768
0.09619919831561233
0.09371172444582054
0.09122752017975536
0.08874652777915629
0.08626869044177528
0.08379395227963111
0.08132225829648573
0.07885355436436631
0.07638778719891423
0.07392490433332574
0.07146485409057227
0.06900758555357855
0.0665530485329262
0.06410119353160346
0.061651971706261875
0.05920533482410848
0.05676123521506997
0.05431962571705881
0.05188045961570529
0.049443690571407926
0.04700927254374486
0.04457715968627755
0.04214730625949788
0.03971966645573045
0.03729419433887173
0.034870843478036644
0.03244956709827836
0.030030317096764757
0.02761304514161217
0.025197699631012996
0.022784230062562666
0.020372578888968457
0.017962688983316495
0.015554514897282934
0.013147893626099928
0.01074323243696075
0.008338426711243208
0.005942234937781305
0.0035131527709577554
0.0011305525187429305
0.9750243474660159
0.9200205057029092
0.8579932887588906
0.7991313446203577
0.7501707851751246
0.7116814333657613
0.6818206928450208
0.6584536616106469
0.639806842774295
0.6245611092133421
0.6117812821131432
0.600815117386283
0.591206418587821
0.5826319304500138
0.5748586353703975
0.5677155338142076
0.5610749903631479
0.5548402532246809
0.5489369603427529
0.543307251325111
0.5379056119095537
0.5326958915786686
0.5276491297228785
0.5227419483249092
0.5179553476758263
0.5132737928994853
0.5086845131154735
0.5041769580479094
0.49974237261156074
0.49537346090660517
0.4910641187003546
0.4868092189007668
0.4826044384200616
0.4784461176504488
0.4743311458433576
0.47025686721572446
0.46622100375263587
0.4622215915407317
0.4582569281261192
0.4543255288976378
0.45042609088969704
0.4465574627066401
0.4427186195132219
0.4389086422285452
0.43512670021502137
0.4313720368781309
0.42764395769341645
0.42394182025918953
0.420265026040642
0.4166130135263965
0.412985252564274
0.4093812396810218
0.4058004942223633
0.4022425551761256
0.3987069785633068
0.3951933353004818
0.3917012094525283
0.38823019680776083
0.3847799037186044
0.3813499461602408
0.37793994896750605
0.37454954521692824
0.3711783757263709
0.3678260886494355
0.3644923391457324
0.36117678911144624
0.35787910695741043
0.35459896742424174
0.35133605142603813
0.34809004591577336
0.3448606437668782
0.34164754366662253
0.3384504500178423
0.3352690728463211
0.33210312771176376
0.3289523356208083
0.3258164229409389
0.3226951213144955
0.3195881675722382
0.3164953036461362
0.3134162764812142
0.31035083794641133
0.3072987447445047
0.30425975832121444
0.3012336447736582
0.2982201747583506
0.29521912339896517
0.29223027019408143
0.28925339892514035
0.28628829756482704
0.2833347581860876
0.2803925768719744
0.27746155362649727
0.2745414922866439
0.27163220043571185
0.26873348931808066
0.26584517375553046
0.26296707206520253
0.2600990059792766
0.25724080056642623
0.2543922841551005
0.25155328825866546
0.24872364750242937
0.24590319955256135
0.24309178504690898
0.24028924752770434
0.2374954333761493
0.23471019174885477
0.23193337451611212
0.22916483620196157
0.22640443392602577
0.2236520273470659
0.22090747860822343
0.2181706522838977
0.21544141532821992
0.2127196370250713
0.21000518893960096
0.20729794487119418
0.20459778080784202
0.20190457488186586
0.19921820732694584
0.19653856043640963
0.1938655185227305
0.1911989678781934
0.18853879673667912
0.18588489523652868
0.1832371553844396
0.18059547102035722
0.17795973778331786
0.17532985307820825
0.17270571604339957
0.170087227519224
0.16747429001725525
0.16486680769036244
0.16226468630350177
0.1596678332052178
0.15707615729982108
0.15448956902021616
0.15190798030134878
0.14933130455424715
0.14675945664062912
0.14419235284804968
0.14162991086556437
0.13907204975988177
0.13651868995198396
0.1339697531941863
0.131425162547617
0.128884842360087
0.1263487182443282
0.1238167170565726
0.12128876687544601
0.11876479698114777
0.11624473783488862
0.11372852105855033
0.1112160794145374
0.10870734678577798
0.10620225815583534
0.10370074958908158
0.10120275821088248
0.09870822218773256
0.09621708070727539
0.09372927395812922
0.09124474310943381
0.08876343029001504
0.0862852785670499
0.08381023192409996
0.08133823523834634
0.07886923425685767
0.07640317557165355
0.07394000659334177
0.07147967552298802
0.06902213132192013
0.06656732367899473
0.06411520297486156
0.06166572024269841
0.05921882712438228
0.05677447582218837
0.054332619042645275
0.051893209936637305
0.049456202022533355
0.04702154911525502
0.04458920520730738
0.04215912440496886
0.039731260700090816
0.03730556800931012
0.03488199959765079
0.03246050863397751
0.030041046375566836
0.027623564869754424
0.025208010677194637
0.02279433535575275
0.02038247539241851
0.01797238107163305
0.015563989000430732
0.01315716015542865
0.010752220132172656
0.008347451797526367
0.005949196610490662
0.003532789363671707
0.0011397481036447884
0.8855113981195268
0.8614114634629861
0.8243507806025612
0.7833644743788174
0.7455677715561169
0.7132224865992044
0.6863185081503513
0.6640935111999733
0.6456434049619171
0.6301472780648978
0.6169345571880939
0.6054846581675741
0.5954025249089668
0.5863904470997405
0.5782236953004575
0.570731571312047
0.5637833270834361
0.5572778922174808
0.5511364130974457
0.5452968180282123
0.5397098316091669
0.5343360271578156
0.5291436268731764
0.5241068447256876
0.5192046265901628
0.5144196836722581
0.5097377443897122
0.5051469704048666
0.5006374970920722
0.4962010691583365
0.491830749652361
0.4875206860502386
0.48326592109068733
0.47906223896585787
0.4749060396494056
0.470794235769882
0.4667241676628893
0.46269353316606876
0.4587003294333972
0.45474280459490035
0.45081941751523585
0.44692880423935333
0.4430697499775888
0.4392411656924411
0.4354420685171714
0.4316715653715159
0.4279288392492482
0.42421313774144065
0.4205237634322177
0.4168600658637761
0.4132214348169887
0.40960729469498236
0.4060170998312581
0.40245033057243884
0.39890649000960315
0.39538510125217385
0.3918857051551603
0.3884078584247076
0.3849511320388425
0.38151510993037574
0.37809938788741215
0.3747035726341073
0.3713272810603643
0.3679701395742893
0.36463178355554404
0.36131185689138307
0.35801001158023726
0.3547259073902948
0.3514592115627079
0.3482095985508834
0.34497674978884896
0.3417603534829665
0.3385601044223369
0.3353757038041319
0.3322068590708235
0.3290532837568996
0.3259146973431519
0.3227908251170398
0.31968139803796974
0.316586152606602
0.31350483073752133
0.31043717963478057
0.3073829516699685
0.30434190426256513
0.30131379976242645
0.2982984053343144
0.29529549284442774
0.29230483874892943
0.28932622398448865
0.28635943386087137
0.2834042579556227
0.2804604900108881
0.277527927832419
0.2746063731908084
0.2716956317249939
0.268795512848061
0.2659058296553706
0.26302639883502815
0.2601570405807032
0.25729757850679963
0.2544478395659696
0.25160765396895657
0.24877685510674738
0.2459552794750043
0.24314276660074569
0.24033915897123537
0.2375443019650405
0.23475804378520904
0.23198023539452078
0.22921073045275595
0.22644938525593095
0.2236960586774423
0.22095061211106448
0.21821290941574123
0.21548281686211407
0.21276020308072885
0.21004493901186183
0.2073368978569088
0.2046359550312784
0.20194198811873618
0.19925487682714085
0.19657450294552267
0.19390075030244688
0.19123350472561568
0.18857265400265405
0.18591808784303585
0.1832696978410992
0.1806273774401093
0.1779910218973226
0.1753605282500123
0.17273579528241267
0.17011672349354465
0.16750321506588384
0.16489517383483643
0.16229250525898584
0.15969511639108025
0.15710291584972474
0.15451581379175172
0.15193372188523524
0.1493565532831244
0.14678422259746457
0.14421664587418068
0.1416537405683963
0.1390954255202617
0.13654162093126662
0.1339922483410116
0.1314472306044136
0.12890649186931907
0.12636995755449942
0.12383755432800203
0.12130921008583041
0.1187848539309237
0.1162644161524074
0.11374782820507981
0.11123502268910324
0.10872593332985758
0.10622049495791817
0.1037186434891102
0.10122031590458794
0.09872545023088017
0.09623398551983652
0.09374586182839795
0.09126102019810649
0.08877940263425754
0.08630095208457372
0.08382561241728062
0.08135332839841024
0.07888404566818803
0.0764177107162453
0.07395427085548638
0.07149367419422159
0.06903586960636487
0.06658080669914697
0.06412843577799862
0.06167870780808521
0.05923157437130415
0.056786987619677945
0.05434490021969905
0.05190526529699438
0.049468036356539395
0.04703316722678661
0.04460061192055067
0.04217032462678491
0.03974225938702545
0.03731637034965675
0.034892610786828857
0.03247093449762864
0.030051292322385837
0.027633638217527134
0.025217916202223863
0.02280408440533912
0.020392067259045202
0.017981840838608005
0.015573283222490469
0.013166386679487066
0.01076108405689137
0.008356793771469683
0.005955613046094871
0.0035489204942527313
0.0011472009758610575
0.8283864574618804
0.8170172430433944
0.7943964672976122
0.7660487202119954
0.7374876288552062
0.711170267746901
0.6878654415959375
0.6675947806855922
0.6500649884893109
0.6348772118138505
0.6216310020157301
0.6099694935644329
0.5995928667887233
0.5902568988859256
0.5817657885322793
0.5739636704122845
0.5667266938020139
0.5599563032701714
0.5535738035657516
0.5475160711286181
0.5417322122911155
0.5361809727337352
0.5308287308743803
0.5256479404889987
0.5206159175130182
0.5157138904551313
0.5109262531389337
0.5062399733044524
0.501644121836625
0.4971294958518012
0.49268831523419937
0.48831397699520374
0.4840008554285775
0.4797441387540836
0.4755396950042929
0.4713839614805746
0.46727385330750326
0.463206687541436
0.4591801200066006
0.4551920925911096
0.4512407891735414
0.4473245986963297
0.44344208417638686
0.43959195666222944
0.43577305332255
0.4319843189929843
0.42822479062292107
0.42449358415808247
0.4207898834715514
0.41711293101927416
0.4134620199484386
0.40983648743059164
0.4062357090275405
0.40265909392832483
0.3991060809208505
0.3955761349830482
0.3920687443962978
0.3885834182989427
0.38511968461044777
0.38167708826751334
0.378255189722562
0.37485356366272643
0.37147179791399454
0.36810949250070724
0.36476625883529057
0.36144171901708344
0.3581355052224848
0.35484725917150317
0.3515766316581947
0.3483232821345249
0.34508687833890617
0.34186709596212134
0.3386636183445635
0.3354761361997577
0.33230434735999004
0.3291479565405994
0.3260066751200887
0.3228802209337235
0.3197683180787025
0.31667069672933634
0.31358709296095877
0.3105172485815347
0.3074609109701214
0.3044178329215047
0.30138777249645476
0.2983704928771611
0.29536576222748173
0.29237335355771504
0.28939304459365595
0.2864246176497381
0.28346785950609954
0.28052256128943237
0.277588518357497
0.27466553018719664
0.27175340026611644
0.2688519359874404
0.2659609485481642
0.2630802528505229
0.2602096674065594
0.2573490142457543
0.25449811882564316
0.2516568099453431
0.24882491966191506
0.24600228320948053
0.24318873892101953
0.2403841281527667
0.23758829521113278
0.2348010872820669
0.23202235436278687
0.22925194919579434
0.22648972720510102
0.2237355464345856
0.22098926748840836
0.21825075347340447
0.21551986994338695
0.2127964848452819
0.2100804684670287
0.2073716933871737
0.2046700344260912
0.20197536859876575
0.199287575069071
0.19660653510548534
0.1939321320381811
0.19126425121743384
0.1886027799732911
0.185947607576452
0.1832986252002999
0.18065572588404513
0.17801880449692367
0.17538775770341045
0.1727624839294002
0.17014288332931546
0.16752885775409979
0.1649203107200583
0.16231714737850744
0.15971927448619963
0.157126600376487
0.15453903493119314
0.15195648955315905
0.14937887713943548
0.14680611205509012
0.14423811010760107
0.14167478852181026
0.13911606591540945
0.1365618622749328
0.1340120989322285
0.13146669854138715
0.1289255850560963
0.12638868370739975
0.12385592098183026
0.1213272245998935
0.11880252349487178
0.11628174779192035
0.11376482878742204
0.11125169892856988
0.10874229179313794
0.10623654206940397
0.10373438553617803
0.1012357590428893
0.09874060048967648
0.09624884880741905
0.09376044393764266
0.0912753268122151
0.08879343933275219
0.08631472434961021
0.08383912564037789
0.08136658788767837
0.07889705665620218
0.07643047836866629
0.07396680028065993
0.0715059704538766
0.06904793772778002
0.06659265168894815
0.06414006263812416
0.061690121554293466
0.059242780054680304
0.05679799035266616
0.054355705205258203
0.05191587786795137
0.04947846201314238
0.04704341170410194
0.044610681225054384
0.04218022517712319
0.03975199799197867
0.03732595458108054
0.034902048634334285
0.032480235573943715
0.030060466068762295
0.02764269832448547
0.025226872616035075
0.022812960927013088
0.020400866454979596
0.017990620372819746
0.015581990292093863
0.01317523977864956
0.010769646724501456
0.008366347953349257
0.005962767370794326
0.0035639384145580225
0.001154871995082278
0.7893664908136069
0.7833022835269463
0.7688866481686161
0.7490362631121958
0.7275405609888937
0.7064833508516659
0.6868240684838869
0.6689301961542782
0.6528512404952621
0.6384729842552406
0.6256101693750091
0.6140591684193177
0.6036249036439887
0.5941326411791803
0.5854316023791314
0.5773944825881774
0.5699151528404227
0.5629057544118303