# vtk DataFile Version 3.0
jCFD simulation data
ASCII
DATASET UNSTRUCTURED_GRID
POINTS 8241 double
0.0 0.0 0.0
0.5 0.0 0.0
0.0 0.1 0.0
0.5 0.1 0.0
0.0025 0.0 0.0
0.005 0.0 0.0
0.0075 0.0 0.0
0.01 0.0 0.0
0.0125 0.0 0.0
0.015 0.0 0.0
0.0175 0.0 0.0
0.02 0.0 0.0
0.0225 0.0 0.0
0.025 0.0 0.0
0.0275 0.0 0.0
0.03 0.0 0.0
0.0325 0.0 0.0
0.035 0.0 0.0
0.0375 0.0 0.0
0.04 0.0 0.0
0.0425 0.0 0.0
0.045 0.0 0.0
0.0475 0.0 0.0
0.05 0.0 0.0
0.0525 0.0 0.0
0.055 0.0 0.0
0.0575 0.0 0.0
0.06 0.0 0.0
0.0625 0.0 0.0
0.065 0.0 0.0
0.0675 0.0 0.0
0.07 0.0 0.0
0.0725 0.0 0.0
0.075 0.0 0.0
0.0775 0.0 0.0
0.08 0.0 0.0
0.0825 0.0 0.0
0.085 0.0 0.0
0.08750000000000001 0.0 0.0
0.09 0.0 0.0
0.0925 0.0 0.0
0.095 0.0 0.0
0.0975 0.0 0.0
0.1 0.0 0.0
0.10250000000000001 0.0 0.0
0.105 0.0 0.0
0.1075 0.0 0.0
0.11 0.0 0.0
0.1125 0.0 0.0
0.115 0.0 0.0
0.11750000000000001 0.0 0.0
0.12 0.0 0.0
0.1225 0.0 0.0
0.125 0.0 0.0
0.1275 0.0 0.0
0.13 0.0 0.0
0.1325 0.0 0.0
0.135 0.0 0.0
0.1375 0.0 0.0
0.14 0.0 0.0
0.14250000000000002 0.0 0.0
0.145 0.0 0.0
0.1475 0.0 0.0
0.15 0.0 0.0
0.1525 0.0 0.0
0.155 0.0 0.0
0.1575 0.0 0.0
0.16 0.0 0.0
0.1625 0.0 0.0
0.165 0.0 0.0
0.1675 0.0 0.0
0.17 0.0 0.0
0.17250000000000001 0.0 0.0
0.17500000000000002 0.0 0.0
0.1775 0.0 0.0
0.18 0.0 0.0
0.1825 0.0 0.0
0.185 0.0 0.0
0.1875 0.0 0.0
0.19 0.0 0.0
0.1925 0.0 0.0
0.195 0.0 0.0
0.1975 0.0 0.0
0.2 0.0 0.0
0.2025 0.0 0.0
0.20500000000000002 0.0 0.0
0.20750000000000002 0.0 0.0
0.21 0.0 0.0
0.2125 0.0 0.0
0.215 0.0 0.0
0.2175 0.0 0.0
0.22 0.0 0.0
0.2225 0.0 0.0
0.225 0.0 0.0
0.2275 0.0 0.0
0.23 0.0 0.0
0.2325 0.0 0.0
0.23500000000000001 0.0 0.0
0.23750000000000002 0.0 0.0
0.24 0.0 0.0
0.2425 0.0 0.0
0.245 0.0 0.0
0.2475 0.0 0.0
0.25 0.0 0.0
0.2525 0.0 0.0
0.255 0.0 0.0
0.2575 0.0 0.0
0.26 0.0 0.0
0.2625 0.0 0.0
0.265 0.0 0.0
0.2675 0.0 0.0
0.27 0.0 0.0
0.2725 0.0 0.0
0.275 0.0 0.0
0.2775 0.0 0.0
0.28 0.0 0.0
0.28250000000000003 0.0 0.0
0.28500000000000003 0.0 0.0
0.28750000000000003 0.0 0.0
0.29 0.0 0.0
0.2925 0.0 0.0
0.295 0.0 0.0
0.2975 0.0 0.0
0.3 0.0 0.0
0.3025 0.0 0.0
0.305 0.0 0.0
0.3075 0.0 0.0
0.31 0.0 0.0
0.3125 0.0 0.0
0.315 0.0 0.0
0.3175 0.0 0.0
0.32 0.0 0.0
0.3225 0.0 0.0
0.325 0.0 0.0
0.3275 0.0 0.0
0.33 0.0 0.0
0.3325 0.0 0.0
0.335 0.0 0.0
0.3375 0.0 0.0
0.34 0.0 0.0
0.3425 0.0 0.0
0.34500000000000003 0.0 0.0
0.34750000000000003 0.0 0.0
0.35000000000000003 0.0 0.0
0.3525 0.0 0.0
0.355 0.0 0.0
0.3575 0.0 0.0
0.36 0.0 0.0
0.3625 0.0 0.0
0.365 0.0 0.0
0.3675 0.0 0.0
0.37 0.0 0.0
0.3725 0.0 0.0
0.375 0.0 0.0
0.3775 0.0 0.0
0.38 0.0 0.0
0.3825 0.0 0.0
0.385 0.0 0.0
0.3875 0.0 0.0
0.39 0.0 0.0
0.3925 0.0 0.0
0.395 0.0 0.0
0.3975 0.0 0.0
0.4 0.0 0.0
0.4025 0.0 0.0
0.405 0.0 0.0
0.40750000000000003 0.0 0.0
0.41000000000000003 0.0 0.0
0.41250000000000003 0.0 0.0
0.41500000000000004 0.0 0.0
0.4175 0.0 0.0
0.42 0.0 0.0
0.4225 0.0 0.0
0.425 0.0 0.0
0.4275 0.0 0.0
0.43 0.0 0.0
0.4325 0.0 0.0
0.435 0.0 0.0
0.4375 0.0 0.0
0.44 0.0 0.0
0.4425 0.0 0.0
0.445 0.0 0.0
0.4475 0.0 0.0
0.45 0.0 0.0
0.4525 0.0 0.0
0.455 0.0 0.0
0.4575 0.0 0.0
0.46 0.0 0.0
0.4625 0.0 0.0
0.465 0.0 0.0
0.4675 0.0 0.0
0.47000000000000003 0.0 0.0
0.47250000000000003 0.0 0.0
0.47500000000000003 0.0 0.0
0.47750000000000004 0.0 0.0
0.48 0.0 0.0
0.4825 0.0 0.0
0.485 0.0 0.0
0.4875 0.0 0.0
0.49 0.0 0.0
0.4925 0.0 0.0
0.495 0.0 0.0
0.4975 0.0 0.0
0.0025 0.1 0.0
0.005 0.1 0.0
0.0075 0.1 0.0
0.01 0.1 0.0
0.0125 0.1 0.0
0.015 0.1 0.0
0.0175 0.1 0.0
0.02 0.1 0.0
0.0225 0.1 0.0
0.025 0.1 0.0
0.0275 0.1 0.0
0.03 0.1 0.0
0.0325 0.1 0.0
0.035 0.1 0.0
0.0375 0.1 0.0
0.04 0.1 0.0
0.0425 0.1 0.0
0.045 0.1 0.0
0.0475 0.1 0.0
0.05 0.1 0.0
0.0525 0.1 0.0
0.055 0.1 0.0
0.0575 0.1 0.0
0.06 0.1 0.0
0.0625 0.1 0.0
0.065 0.1 0.0
0.0675 0.1 0.0
0.07 0.1 0.0
0.0725 0.1 0.0
0.075 0.1 0.0
0.0775 0.1 0.0
0.08 0.1 0.0
0.0825 0.1 0.0
0.085 0.1 0.0
0.08750000000000001 0.1 0.0
0.09 0.1 0.0
0.0925 0.1 0.0
0.095 0.1 0.0
0.0975 0.1 0.0
0.1 0.1 0.0
0.10250000000000001 0.1 0.0
0.105 0.1 0.0
0.1075 0.1 0.0
0.11 0.1 0.0
0.1125 0.1 0.0
0.115 0.1 0.0
0.11750000000000001 0.1 0.0
0.12 0.1 0.0
0.1225 0.1 0.0
0.125 0.1 0.0
0.1275 0.1 0.0
0.13 0.1 0.0
0.1325 0.1 0.0
0.135 0.1 0.0
0.1375 0.1 0.0
0.14 0.1 0.0
0.14250000000000002 0.1 0.0
0.145 0.1 0.0
0.1475 0.1 0.0
0.15 0.1 0.0
0.1525 0.1 0.0
0.155 0.1 0.0
0.1575 0.1 0.0
0.16 0.1 0.0
0.1625 0.1 0.0
0.165 0.1 0.0
0.1675 0.1 0.0
0.17 0.1 0.0
0.17250000000000001 0.1 0.0
0.17500000000000002 0.1 0.0
0.1775 0.1 0.0
0.18 0.1 0.0
0.1825 0.1 0.0
0.185 0.1 0.0
0.1875 0.1 0.0
0.19 0.1 0.0
0.1925 0.1 0.0
0.195 0.1 0.0
0.1975 0.1 0.0
0.2 0.1 0.0
0.2025 0.1 0.0
0.20500000000000002 0.1 0.0
0.20750000000000002 0.1 0.0
0.21 0.1 0.0
0.2125 0.1 0.0
0.215 0.1 0.0
0.2175 0.1 0.0
0.22 0.1 0.0
0.2225 0.1 0.0
0.225 0.1 0.0
0.2275 0.1 0.0
0.23 0.1 0.0
0.2325 0.1 0.0
0.23500000000000001 0.1 0.0
0.23750000000000002 0.1 0.0
0.24 0.1 0.0
0.2425 0.1 0.0
0.245 0.1 0.0
0.2475 0.1 0.0
0.25 0.1 0.0
0.2525 0.1 0.0
0.255 0.1 0.0
0.2575 0.1 0.0
0.26 0.1 0.0
0.2625 0.1 0.0
0.265 0.1 0.0
0.2675 0.1 0.0
0.27 0.1 0.0
0.2725 0.1 0.0
0.275 0.1 0.0
0.2775 0.1 0.0
0.28 0.1 0.0
0.28250000000000003 0.1 0.0
0.28500000000000003 0.1 0.0
0.28750000000000003 0.1 0.0
0.29 0.1 0.0
0.2925 0.1 0.0
0.295 0.1 0.0
0.2975 0.1 0.0
0.3 0.1 0.0
0.3025 0.1 0.0
0.305 0.1 0.0
0.3075 0.1 0.0
0.31 0.1 0.0
0.3125 0.1 0.0
0.315 0.1 0.0
0.3175 0.1 0.0
0.32 0.1 0.0
0.3225 0.1 0.0
0.325 0.1 0.0
0.3275 0.1 0.0
0.33 0.1 0.0
0.3325 0.1 0.0
0.335 0.1 0.0
0.3375 0.1 0.0
0.34 0.1 0.0
0.3425 0.1 0.0
0.34500000000000003 0.1 0.0
0.34750000000000003 0.1 0.0
0.35000000000000003 0.1 0.0
0.3525 0.1 0.0
0.355 0.1 0.0
0.3575 0.1 0.0
0.36 0.1 0.0
0.3625 0.1 0.0
0.365 0.1 0.0
0.3675 0.1 0.0
0.37 0.1 0.0
0.3725 0.1 0.0
0.375 0.1 0.0
0.3775 0.1 0.0
0.38 0.1 0.0
0.3825 0.1 0.0
0.385 0.1 0.0
0.3875 0.1 0.0
0.39 0.1 0.0
0.3925 0.1 0.0
0.395 0.1 0.0
0.3975 0.1 0.0
0.4 0.1 0.0
0.4025 0.1 0.0
0.405 0.1 0.0
0.40750000000000003 0.1 0.0
0.41000000000000003 0.1 0.0
0.41250000000000003 0.1 0.0
0.41500000000000004 0.1 0.0
0.4175 0.1 0.0
0.42 0.1 0.0
0.4225 0.1 0.0
0.425 0.1 0.0
0.4275 0.1 0.0
0.43 0.1 0.0
0.4325 0.1 0.0
0.435 0.1 0.0
0.4375 0.1 0.0
0.44 0.1 0.0
0.4425 0.1 0.0
0.445 0.1 0.0
0.4475 0.1 0.0
0.45 0.1 0.0
0.4525 0.1 0.0
0.455 0.1 0.0
0.4575 0.1 0.0
0.46 0.1 0.0
0.4625 0.1 0.0
0.465 0.1 0.0
0.4675 0.1 0.0
0.47000000000000003 0.1 0.0
0.47250000000000003 0.1 0.0
0.47500000000000003 0.1 0.0
0.47750000000000004 0.1 0.0
0.48 0.1 0.0
0.4825 0.1 0.0
0.485 0.1 0.0
0.4875 0.1 0.0
0.49 0.1 0.0
0.4925 0.1 0.0
0.495 0.1 0.0
0.4975 0.1 0.0
0.0 0.0025 0.0
0.0 0.005 0.0
0.0 0.0075 0.0
0.0 0.01 0.0
0.0 0.0125 0.0
0.0 0.015 0.0
0.0 0.0175 0.0
0.0 0.02 0.0
0.0 0.0225 0.0
0.0 0.025 0.0
0.0 0.0275 0.0
0.0 0.03 0.0
0.0 0.0325 0.0
0.0 0.035 0.0
0.0 0.0375 0.0
0.0 0.04 0.0
0.0 0.0425 0.0
0.0 0.045 0.0
0.0 0.0475 0.0
0.0 0.05 0.0
0.0 0.0525 0.0
0.0 0.055 0.0
0.0 0.0575 0.0
0.0 0.06 0.0
0.0 0.0625 0.0
0.0 0.065 0.0
0.0 0.0675 0.0
0.0 0.07 0.0
0.0 0.0725 0.0
0.0 0.075 0.0
0.0 0.0775 0.0
0.0 0.08 0.0
0.0 0.0825 0.0
0.0 0.085 0.0
0.0 0.08750000000000001 0.0
0.0 0.09 0.0
0.0 0.0925 0.0
0.0 0.095 0.0
0.0 0.0975 0.0
0.5 0.0025 0.0
0.5 0.005 0.0
0.5 0.0075 0.0
0.5 0.01 0.0
0.5 0.0125 0.0
0.5 0.015 0.0
0.5 0.0175 0.0
0.5 0.02 0.0
0.5 0.0225 0.0
0.5 0.025 0.0
0.5 0.0275 0.0
0.5 0.03 0.0
0.5 0.0325 0.0
0.5 0.035 0.0
0.5 0.0375 0.0
0.5 0.04 0.0
0.5 0.0425 0.0
0.5 0.045 0.0
0.5 0.0475 0.0
0.5 0.05 0.0
0.5 0.0525 0.0
0.5 0.055 0.0
0.5 0.0575 0.0
0.5 0.06 0.0
0.5 0.0625 0.0
0.5 0.065 0.0
0.5 0.0675 0.0
0.5 0.07 0.0
0.5 0.0725 0.0
0.5 0.075 0.0
0.5 0.0775 0.0
0.5 0.08 0.0
0.5 0.0825 0.0
0.5 0.085 0.0
0.5 0.08750000000000001 0.0
0.5 0.09 0.0
0.5 0.0925 0.0
0.5 0.095 0.0
0.5 0.0975 0.0
0.0025 0.0025 0.0
0.005 0.0025 0.0
0.0075 0.0025 0.0
0.01 0.0025 0.0
0.0125 0.0025 0.0
0.015 0.0025 0.0
0.0175 0.0025 0.0
0.02 0.0025 0.0
0.0225 0.0025 0.0
0.025 0.0025 0.0
0.0275 0.0025 0.0
0.03 0.0025 0.0
0.0325 0.0025 0.0
0.035 0.0025 0.0
0.0375 0.0025 0.0
0.04 0.0025 0.0
0.0425 0.0025 0.0
0.045 0.0025 0.0
0.0475 0.0025 0.0
0.05 0.0025 0.0
0.0525 0.0025 0.0
0.055 0.0025 0.0
0.0575 0.0025 0.0
0.06 0.0025 0.0
0.0625 0.0025 0.0
0.065 0.0025 0.0
0.0675 0.0025 0.0
0.07 0.0025 0.0
0.0725 0.0025 0.0
0.075 0.0025 0.0
0.0775 0.0025 0.0
0.08 0.0025 0.0
0.0825 0.0025 0.0
0.085 0.0025 0.0
0.08750000000000001 0.0025 0.0
0.09 0.0025 0.0
0.0925 0.0025 0.0
0.095 0.0025 0.0
0.0975 0.0025 0.0
0.1 0.0025 0.0
0.10250000000000001 0.0025 0.0
0.105 0.0025 0.0
0.1075 0.0025 0.0
0.11 0.0025 0.0
0.1125 0.0025 0.0
0.115 0.0025 0.0
0.11750000000000001 0.0025 0.0
0.12 0.0025 0.0
0.1225 0.0025 0.0
0.125 0.0025 0.0
0.1275 0.0025 0.0
0.13 0.0025 0.0
0.1325 0.0025 0.0
0.135 0.0025 0.0
0.1375 0.0025 0.0
0.14 0.0025 0.0
0.14250000000000002 0.0025 0.0
0.145 0.0025 0.0
0.1475 0.0025 0.0
0.15 0.0025 0.0
0.1525 0.0025 0.0
0.155 0.0025 0.0
0.1575 0.0025 0.0
0.16 0.0025 0.0
0.1625 0.0025 0.0
0.165 0.0025 0.0
0.1675 0.0025 0.0
0.17 0.0025 0.0
0.17250000000000001 0.0025 0.0
0.17500000000000002 0.0025 0.0
0.1775 0.0025 0.0
0.18 0.0025 0.0
0.1825 0.0025 0.0
0.185 0.0025 0.0
0.1875 0.0025 0.0
0.19 0.0025 0.0
0.1925 0.0025 0.0
0.195 0.0025 0.0
0.1975 0.0025 0.0
0.2 0.0025 0.0
0.2025 0.0025 0.0
0.20500000000000002 0.0025 0.0
0.20750000000000002 0.0025 0.0
0.21 0.0025 0.0
0.2125 0.0025 0.0
0.215 0.0025 0.0
0.2175 0.0025 0.0
0.22 0.0025 0.0
0.2225 0.0025 0.0
0.225 0.0025 0.0
0.2275 0.0025 0.0
0.23 0.0025 0.0
0.2325 0.0025 0.0
0.23500000000000001 0.0025 0.0
0.23750000000000002 0.0025 0.0
0.24 0.0025 0.0
0.2425 0.0025 0.0
0.245 0.0025 0.0
0.2475 0.0025 0.0
0.25 0.0025 0.0
0.2525 0.0025 0.0
0.255 0.0025 0.0
0.2575 0.0025 0.0
0.26 0.0025 0.0
0.2625 0.0025 0.0
0.265 0.0025 0.0
0.2675 0.0025 0.0
0.27 0.0025 0.0
0.2725 0.0025 0.0
0.275 0.0025 0.0
0.2775 0.0025 0.0
0.28 0.0025 0.0
0.28250000000000003 0.0025 0.0
0.28500000000000003 0.0025 0.0
0.28750000000000003 0.0025 0.0
0.29 0.0025 0.0
0.2925 0.0025 0.0
0.295 0.0025 0.0
0.2975 0.0025 0.0
0.3 0.0025 0.0
0.3025 0.0025 0.0
0.305 0.0025 0.0
0.3075 0.0025 0.0
0.31 0.0025 0.0
0.3125 0.0025 0.0
0.315 0.0025 0.0
0.3175 0.0025 0.0
0.32 0.0025 0.0
0.3225 0.0025 0.0
[...]
CELL_DATA 8000
SCALARS phi float 1
LOOKUP_TABLE CellColors
1.1247082598653204
0.5180657500822591
0.3110641827624894
0.2214906146575047
0.17376625106275387
0.1442798971303822
0.12418828067622019
0.10956452116599638
0.09840881754114127
0.08959350421417768
0.08243327419884293
0.07648750672167416
0.07146018359011017
0.06714527860284475
0.06339514600369812
0.06010132752362163
0.05718243075295309
0.05457621541424471
0.05223427877583548
0.050118398707616724
0.04819796379656403
0.04644813388940337
0.04484850207764052
0.043382107521186514
0.04203469785756047
0.04079417190809147
0.039650154273508466
0.038593667657074296
0.03761687823648216
0.03671289627196971
0.03587561872394194
0.03509960413779368
0.03437997243257039
0.03371232405774102
0.033092674280446835
0.032517399374569406
0.031983192206878425
0.03148702528929192
0.031026119791685486
0.030597919339258543
0.03020006767201749
0.029830389440282656
0.029486873562609484
0.029167658691444096
0.02887102042479362
0.028595359975056706
0.02833919406345003
0.028101145853537374
0.02787993677298344
0.027674379100797012
0.027483369219637375
0.027305881450507705
0.027140962401254035
0.026987725771600468
0.026845347566482332
0.026713061676733908
0.026590155792104966
0.026475967616350786
0.026369881358109706
0.026271324474451976
0.026179764646682997
0.0260947069701543
0.026015691341704207
0.02594229002993032
0.025874105414841926
0.025810767884666456
0.025751933878589588
0.02569728406517823
0.025646521646994807
0.02559937078267783
0.025555575118358004
0.025514896420896868
0.025477113305939197
0.025442020054274227
0.025409425510454067
0.02537915205802335
0.02535103466612291
0.025324920002557143
0.025300665608775648
0.02527813913249364
0.025257217613996834
0.02523778682240413
0.025219740638470062
0.02520298048066556
0.025187414771598842
0.02517295844191541
0.025159532469136717
0.02514706344895622
0.025135483196748385
0.025124728377195815
0.025114740160006983
0.02510546389999389
0.025096848839679695
0.025088847832984568
0.025081417088393815
0.025074515930326734
0.025068106577390833
0.025062153936327238
0.025056625410609826
0.025051490722541
0.025046721748040617
0.025042292363011427
0.02503817830067322
0.025034357018874357
0.025030807576867264
0.025027510520816122
0.025024447777363176
0.025021602554930952
0.02501895925171743
0.025016503370533082
0.0250142214392149
0.025012100936985592
0.025010130225729885
0.02500829848622627
0.025006595658923943
0.025005012388660944
0.025003539973517695
0.02500217031687652
0.025000895883047634
0.024999709655782177
0.024998605099672295
0.024997576124267902
0.024996617050420642
0.02499572257909261
0.02499488776191666
0.024994107973879468
0.024993378887556834
0.024992696449234453
0.024992056856425658
0.02499145653673373
0.024990892127684777
0.024990360457592557
0.024989858527621655
0.024989383495080862
0.024988932657605115
0.02498850343760823
0.024988093366947184
0.024987700072287098
0.024987321261785135
0.02498695471207814
0.024986598254612143
0.02498624976269924
0.024985907137678547
0.024985568295885798
0.02498523116220297
0.024984893636863247
0.02498455362216022
0.02498420895122426
0.024983857448516732
0.02498349681068127
0.024983124713692576
0.02498273870781878
0.02498233624342212
0.024981914610078804
0.024981470955169553
0.02498100230089115
0.02498050540748932
0.024979976840004667
0.024979412914269125
0.02497880969683817
0.024978162900663396
0.024977467903904784
0.02497671970102596
0.024975912876225238
0.02497504146950254
0.0249740990085037
0.024973078398434684
0.024971971846310184
0.024970770749620286
0.02496946560482339
0.024968045903692965
0.024966499893182142
0.024964814483923754
0.02496297495037738
0.02496096471877653
0.024958764952586216
0.024956354170167384
0.024953707733455625
0.024950797170458262
0.024947589303685406
0.024944045202112824
0.02494011878196608
0.02493575499580696
0.02493088743577463
0.02492543509352559
0.02491929807570509
0.024912351604936257
0.02490443766641985
0.02489535301140752
0.02488483148554108
0.02487251717322523
0.02485792179631646
0.024840353638470234
0.02481879073461402
0.024791634386639914
0.02475617557733805
0.024707284161492402
0.02463373245470192
0.02450569651433788
0.02437395467338487
1.7387410293845444
1.1443200171141725
0.8118107967992508
0.6196102130411962
0.5003137871709952
0.4208024699111789
0.3645055375531743
0.3226628061243354
0.29034117557808325
0.26459234588537595
0.2435604867368737
0.22602512574087516
0.2111535775679039
0.1983598416720668
0.1872204743669382
0.1774224239071318
0.16872956613716664
0.16096059389529824
0.15397402797537746
0.14765782536794744
0.1419220317142242
0.1366934955870624
0.13191200757472912
0.1275274416615575
0.12349761310334498
0.11978665574518163
0.11636378079675543
0.1132023188160778
0.1102789741693969
0.10757324025165431
0.10506693738721815
0.10274384497984806
0.1005894065802542
0.09859049168818132
0.09673520194863619
0.0950127122848704
0.09341313965044122
0.0919274337390986
0.09054728523864888
0.0892650481779547
0.08807367365837354
0.08696665283614545
0.08593796746940781
0.0849820466923379
0.08409372895194318
0.08326822825695265
0.0825011040566435
0.08178823419993798
0.08112579052978637
0.08051021675069565
0.07993820827285525
0.0794066937885716
0.07891281837824399
0.07845392797636504
0.07802755505472525
0.07763140540140734
0.07726334589168236
0.0769213931609631
0.07660370310166754
0.07630856111528483
0.07603437305879165
0.07577965683112999
0.07554303455083887
0.07532322528074473
0.0751190382595146
0.07492936660357398
0.0747531814458703
0.07458952648081979
0.07443751288709688
0.07429631460211453
0.074165163923934
0.07404334741804348
0.07393020210810926
0.07382511193114562
0.07372750443906223
0.07363684772962238
0.0735526475911778
0.07347444484644433
0.07340181288171307
0.07333435534868132
0.07327170402706684
0.07321351683684388
0.07315947598985056
0.07310928627104482
0.07306267344051384
0.0730193827478305
0.07297917755091259
0.07294183803224709
0.07290716000543748
0.07287495380609474
0.07284504326078445
0.07281726472893577
0.07279146621229586
0.0727675065273668
0.07274525453637734
0.07272458843255346
0.0727053950761463
0.0726875693773103
0.07267101372293701
0.07265563744393609
0.07264135632040097
0.07262809212167831
0.07261577217894208
0.0726043289880535
0.07259369984032338
0.07258382647982008
0.0725746547845645
0.07256613447091922
0.07255821881830175
0.07255086441377831
0.07254403091423053
0.0725376808252797
0.07253177929597521
0.07252629392747259
0.0725211945958622
0.07251645328666595
0.07251204394146737
0.07250794231466937
0.07250412584025341
0.07250057350784457
0.07249726574691749
0.07249418431943884
0.07249131221910225
0.0724886335778367
0.07248613357779833
0.07248379836940366
0.07248161499427497
0.0724795713136055
0.07247765594100986
0.07247585817921139
0.07247416795969637
0.07247257578527358
0.07247107267626249
0.07246965012055506
0.07246830002643603
0.07246701467624604
0.0724657866800749
0.07246460893182345
0.0724634745691456
0.0724623769349002
0.07246130953836447
0.07246026601103202
0.0724592400698741
0.07245822548400034
0.07245721602048055
0.07245620543377035
0.07245518739482074
0.0724541554741717
0.07245310308757058
0.0724520234228911
0.07245090947452347
0.07244975393807153
0.07244854915083727
0.07244728702341699
0.0724459590739519
0.07244455629931275
0.07244306906999295
0.07244148709886385
0.07243979940197522
0.07243799416528979
0.07243605860197404
0.07243397890541572
0.07243174013932699
0.07242932605961659
0.07242671892467135
0.07242389940620816
0.07242084631229392
0.07241753638492257
0.07241394397358361
0.07241004078387146
0.0724057954281486
0.0724011729738527
0.0723961344153151
0.0723906360051869
0.07238462842108326
0.0723780557433908
0.07237085426499242
0.07236295095633183
0.07235426148317833
0.07234468776410567
0.07233411484798816
0.07232240688701722
0.0723094018940994
0.07229490478494861
0.07227867826007353
0.07226043041789541
0.07223979787869271
0.07221632230833348
0.07218941712254726
0.07215831925235258
0.07212201718815595
0.07207914029139302
0.07202778180692866
0.0719652030318866
0.07188731284101925
0.07178769866052592
0.07165571289140006
0.07147248120748845
0.07119816729077727
0.07094053848296752
1.947382004902956
1.492134740467565
1.1652482586486455
0.9402502910004977
0.7834749808069679
0.6709592331808315
0.5874496021991303
0.5234528756325956
0.47299425493920844
0.4322200670207854
0.398572665907491
0.3703055927788557
0.34619422265493843
0.3253589029551917
0.3071539423614061
0.2910960664889621
0.27681714170080146
0.26403220679989614
0.2525173984764492
0.2420944180735331
0.23261941457043772
0.22397490661435612
0.21606383248768143
0.2088051137704428
0.20213031111812543
0.19598107817259014
0.19030720544824534
0.18506510487031677
0.18021662645002465
0.17572812740928423
0.17156973460389752
0.1677147559654457
0.16413920752065658
0.16082143057601947
0.1577417796026701
0.1548823658652228
0.15222684520255828
0.14976024096617396
0.14746879509367997
0.14533984181788145
0.14336169968878237
0.14152357849916017
0.13981549841612842
0.1382282191765326
0.1367531776396664
0.13538243233232441
0.13410861389022144
0.13292488051184184
0.13182487770817827
0.13080270176459188
0.129852866436096
0.1289702724811356
0.1281501797056274
0.1273881812423276
0.12668017983354227
0.1260223659196316
0.1254111973638891
0.12484338066717496
0.12431585354434811
0.12382576875001357
0.12337047905361048
0.12294752327463024
0.12255461329742671
0.12218962199289021
0.12185057198070459
0.12153562517181365
0.12124307303578005
0.12097132754219024
0.12071891272930683
0.12048445685649752
0.12026668510036113
0.12006441275700368
0.11987653891590203
0.11970204057285283
0.11953996715206955
0.11938943540931811
0.11924962469003064
0.11911977251806945
0.11899917049238541
0.11888716047045596
0.11878313101866977
0.1186865141113106
0.11859678206089415
0.11851344466398454
0.11843604654738474
0.11836416470110367
0.11829740618471718
0.11823540599552672
0.11817782508673581
0.11812434852555018
0.11807468378119103
0.11802855913369384
0.11798572219531078
0.11794593853610058
0.11790899040704383
0.1178746755531369
0.11784280611081076
0.11781320758326155
0.11778571788855458
0.11776018647520904
0.11773647350037457
0.11771444906625522
0.117693992510297
0.1176749917457078
0.11765734264842834
0.11764094848787258
0.11762571939785121
0.11761157188540042
0.11759842837403214
0.11758621677938462
0.1175748701144639
0.11756432612251073
0.11755452693595045
0.11754541875894187
0.1175369515728979
0.11752907886202273
0.11752175735836283
0.11751494680419018
0.11750860973059532
0.1175027112517528
0.11749721887265036
0.11749210231082642
0.11748733332909186
0.11748288558028218
0.11747873446118687
0.11747485697643428
0.11747123161045053
0.1174678382083961
0.11746465786487825
0.11746167281903673
0.11745886635433833
0.11745622270305067
0.11745372695644676
0.11745136498202147
0.11744912334555012
0.11744698923478061
0.11744495038242127
0.11744299499212417
0.11744111167026472
0.11743928936761382
0.11743751730765832
0.11743578492385068
0.11743408178974872
0.11743239755046558
0.11743072188621424
0.11742904440580193
0.11742735462704847
0.11742564187565363
0.11742389521324612
0.11742210336800761
0.11742025470616406
0.11741833710501547
0.1174163378414529
0.11741424354425363
0.11741204013144502
0.11740971265645027
0.11740724516566195
0.11740462063524713
0.11740182085500062
0.11739882622780266
0.11739561559332497
0.11739216610855951
0.11738845303202144
0.11738444946466316
0.11738012610140586
0.1173754509565332
0.11737038902256433
0.11736490186097959
0.11735894716760416
0.11735247824860656
0.11734544336384352
0.11733778500403808
0.1173294390077898
0.11732033347698154
0.11731038744490685
0.11729950928989406
0.11728759478396866
0.11727452460865538
0.11726016126775758
0.11724434520727986
0.1172268898833873
0.11720757543163057
0.11718614040636836
0.11716227109847874
0.1171355873466526
0.11710562363740883
0.11707180352433216
0.11703340450801532
0.11698950914307489
0.11693893551430046
0.1168801365316843
0.11681105046565815
0.1167288735111656
0.11662970417436601
0.11650797207124741
0.11635549885996654
0.11615993530524489
0.11590220811717007
0.11554630046913175
0.11522626412208092
2.0379919915044042
1.6935597673852878
1.407884424093708
1.1865604625833395
1.0177217536984815
0.8882448592018669
0.7874674646451365
0.707564206971542
0.6429953673944927
0.5898683769802741
0.5454311853721213
0.5077135941600813
0.47528358750600197
0.4470836356808311
0.4223203992594993
0.40038967736967007
0.3808246671226989
0.36325978222359584
0.34740498679059245
0.33302733499075954
0.3199375194726962
0.30797995032179537
0.2970253560382272
0.28696520875782494
0.27770748439541726
0.26917341007625933
0.26129494886128274
0.2540128399489174
0.24727506071045266
0.24103561142108604
0.23525354843824672
0.2298922098372119
0.22491859094462494
0.22030283723696562
0.2160178295790126
0.21203884247318153
0.20834326030296269
0.20491033986932466
0.20172101006454385
0.19875770149449004
0.196004200387413
0.1934455223144151
0.1910678021750155
0.1888581976267427
0.1868048037075796
0.1848965768480987
0.18312326682273738
0.18147535546867846
0.17994400122067317
0.17852098868515853
0.17719868261541194
0.17596998576001258
0.17482830014496484
0.17376749142029138
0.1727818559587326
0.1718660904398756
0.17101526369032974
0.17022479058092313
0.16949040780676305
0.16880815139659852
0.16817433581475458
0.16758553453318742
0.1670385619630502
0.16653045664551355
0.16605846561051876
0.16562002981996585
0.16521277061895046
0.16483447712450924
0.164483094487123
0.16415671296455248
0.16385355775238342
0.1635719795191675
0.16331044559795443
0.1630675317892927
0.16284191473371634
0.16263236481498555
0.16243773955744448
0.1622569774839428
0.16208909240240085
0.16193316809177338
0.16178835335971434
0.16165385744642627
0.16152894575068932
0.16141293585592253
0.1613051938353401
0.16120513081705154
0.1611121997908454
0.16102589263990924
0.1609457373818852
0.1608712956042669
0.160802160081132
0.16073795255773773
0.16067832169203108
0.16062294114130987
0.16057150778438756
0.1605237400694391
0.1604793764787814
0.16043817410256644
0.1603999073134583
0.16036436653549213
0.16033135710001292
0.16030069818266493
0.16027222181531517
0.16024577196792453
0.1602212036950868
0.16019838234364508
0.16017718281596718
0.16015748888648454
0.1601391925656194
0.16012219350931664
0.16010639846939334
0.16009172078239853
0.1600780798949937
0.1600654009217466
0.16005361423552514
0.1600426550852034
0.16003246324091688
0.160022982663302
0.1600141611951083
0.1600059502750375
0.15999830466976359
0.1599911822261768
0.15998454363822792
0.15997835223103318
0.15997257375749466
0.1599671762089413
0.15996212963678474
0.15995740598640418
0.1599529789424287
0.15994882378324715
0.1599449172415891
0.15994123737134824
0.15993776342205043
0.15993447572324634
0.15993135557656066
0.15992838515057498
0.15992554737439243
0.15992282583194908
0.15992020467026685
0.1599176685053524
0.159915202350041
0.15991279149916776
0.15991042144363737
0.15990807779383392
0.15990574616557915
0.15990341213268067
0.15990106109937252
0.1598986782210029
0.15989624828505394
0.1598937556366089
0.15989118409047853
0.15988851677824448
0.1598857360271103
0.15988282327278933
0.15987975893482712
0.15987652222969267
0.15987309101622854
0.1598694416690487
0.1598655488897882
0.15986138546458792
0.15985692205681556
0.15985212698586268
0.1598469659343759
0.15984140163047594
0.15983539348611733
0.15982889723201701
0.15982186442727056
0.1598142419482143
0.1598059713768256
0.15979698826853966
0.15978722132595669
0.15977659139338407
0.15976501027935994
0.15975237929524583
0.1597385875241667
0.15972350972001909
0.15970700368812443
0.15968890704541455
0.15966903319576306
0.15964716628000988
0.15962305478646277
0.15959640334381253
0.15956686225756325
0.15953401388692282
0.1594973548576977
0.1594562725663096
0.15941001380177866
0.1593576424975623
0.1592979819204162
0.15922953478871343
0.159150371133777
0.1590579688167239
0.15894898360311818
0.15881891412356552
0.15866161150534697
0.15846856803858547
0.15822792509820735
0.15792325000881874
0.15752379446285295
0.1571722390666878
2.086479191973552
1.8188393995654115
1.5767196194595974
1.3733656781485086
1.2071087915747265
1.07228909404445
0.9626755482508599
0.872799177357197
0.7982758947482533
0.7357294419997537
0.6826011280120645
0.6369584924825352
0.5973370027695327
0.5626187476863587
0.5319425470758848
0.5046382303310922
0.4801787299326576
0.45814506882241957
0.438200625719034
0.4200720828100389
0.40353520890025735
0.38840416514849824
0.37452339673224316
0.36176143813181344
0.3500061458465027
0.3391610040577836
0.3291422426835747
0.3198765746948596
0.3112994085091851
0.3033534268957758
0.29598745022258544
0.2891555213519154
0.2828161641724546
0.2769317787396592
0.2714681443991706
0.2663940085998617
0.2616807440544985
0.2573020606299538
0.253233761295896
0.24945353371853748
0.2459407708549826
0.2426764152834006
0.23964282308557974
0.2368236439475707
0.23420371481079472
0.23176896493301433
0.22950633063259485
0.2274036783186217
0.2254497346687294
0.22363402302312155
0.22194680522731658
0.22037902828661857
0.21892227530031788
0.21756872022681964
0.21631108609898833
0.21514260636311056
0.21405698905971973
0.21304838360074874
0.21211134992738148
0.21124082985783404
0.21043212045448084
0.20968084925723124
0.20898295124431962
0.2083346473944511
0.20773242473525172
0.20717301777251118
0.20665339120369866
0.20617072382631393
0.20572239355886282
0.20530596349785982
0.20491916893979073
0.2045599053021542
0.2042262168817374
0.20391628639333326
0.20362842523510752
0.20336106443133437
0.20311274620588163
0.20288211614332177
0.2026679158974091
0.20246897640903047
0.20228421159888893
0.20211261250179036
0.201953241812382
0.20180522881369556
0.20166776466205347
0.20154009800364128
0.20142153089964682
0.2013114150384076
0.20120914821472097
0.20111417105732377
0.20102596398750172
0.20094404439238575
0.20086796399797352
0.20079730642792426
0.20073168493483826
0.20067074029218943
0.20061413883537088
0.200561570641681
0.2005127478393117
0.2004674030364166
0.20042528786138475
0.2003861716065941
0.20034983996758507
0.20031609387170976
0.20028474838900145
0.20025563172115676
0.2002285842616183
0.20020345772330544
0.20018011432754995
0.2001584260501758
0.20013827392088598
0.20011954737042303
0.20010214362546272
0.20008596714410506
0.20007092909329008
0.20005694686134978
0.20004394360492966
0.20003184782764288
0.20002059298588387
0.20001011712436428
0.2000003625335646
0.1999912754341915
0.1999828056794568
0.19997490647968008
0.1999675341428781
0.1999606478333344
0.1999542093441368
0.1999481828846028
0.19994253488260946
0.1999372337999964
0.19993224995534142
0.19992755535339707
0.19992312352474165
0.1999189293768677
0.19991494905784618
0.19991115982152086
0.19990753989509205
0.19990406834578786
0.19990072495019598
0.19989749009763594
0.19989434465842904
0.19989126989271988
0.1998882473073327
0.19988525853789857
0.1998822852717216
0.19987930909865995
0.19987631142310877
0.19987327331898583
0.19987017540782775
0.19986699775191588
0.1998637197185242
0.19986031981413224
0.19985677554382514
0.19985306327741229
0.19984915807129233
0.1998450334658175
0.19984066130227618
0.19983601153023955
0.19983105195843945
0.19982574798988897
0.19982006235501187
0.19981395480858308
0.19980738177669433
0.19980029595600646
0.19979264589347023
0.19978437548182293
0.1997754233941618
0.19976572244116012
0.19975519879892625
0.19974377115158942
0.1997313496471126
0.19971783470599616
0.19970311555388473
0.19968706849170698
0.19966955482636042
0.1996504183310036
0.19962948213276235
0.1996065448896259
0.19958137606104767
0.199553710003456
0.19952323850072917
0.1994896013642362
0.19945237442719396
0.19941105414430185
0.19936503767832978
0.1993135969267041
0.19925584451459222
0.19919068868829876
0.19911677328229505
0.1990323969684796
0.1989354040937035
0.19882303631285017
0.1986917307404865
0.19853684709493244
0.1983523060226515
0.19813013232760646
0.1978599411885817
0.19752853696455533
0.19710910828792744
0.1967425125263862
2.1164788632145135
1.9023052405847096
1.6975294389907047
1.5156946001233507
1.359034910507863