# vtk DataFile Version 3.0
jCFD simulation data
ASCII
DATASET UNSTRUCTURED_GRID
POINTS 3321 double
0.0 0.0 0.0
1.0 0.0 0.0
0.0 0.5 0.0
1.0 0.5 0.0
0.0125 0.0 0.0
0.025 0.0 0.0
0.037500000000000006 0.0 0.0
0.05 0.0 0.0
0.0625 0.0 0.0
0.07500000000000001 0.0 0.0
0.08750000000000001 0.0 0.0
0.1 0.0 0.0
0.1125 0.0 0.0
0.125 0.0 0.0
0.1375 0.0 0.0
0.15000000000000002 0.0 0.0
0.1625 0.0 0.0
0.17500000000000002 0.0 0.0
0.1875 0.0 0.0
0.2 0.0 0.0
0.21250000000000002 0.0 0.0
0.225 0.0 0.0
0.23750000000000002 0.0 0.0
0.25 0.0 0.0
0.2625 0.0 0.0
0.275 0.0 0.0
0.28750000000000003 0.0 0.0
0.30000000000000004 0.0 0.0
0.3125 0.0 0.0
0.325 0.0 0.0
0.3375 0.0 0.0
0.35000000000000003 0.0 0.0
0.36250000000000004 0.0 0.0
0.375 0.0 0.0
0.3875 0.0 0.0
0.4 0.0 0.0
0.41250000000000003 0.0 0.0
0.42500000000000004 0.0 0.0
0.4375 0.0 0.0
0.45 0.0 0.0
0.4625 0.0 0.0
0.47500000000000003 0.0 0.0
0.48750000000000004 0.0 0.0
0.5 0.0 0.0
0.5125000000000001 0.0 0.0
0.525 0.0 0.0
0.5375 0.0 0.0
0.55 0.0 0.0
0.5625 0.0 0.0
0.5750000000000001 0.0 0.0
0.5875 0.0 0.0
0.6000000000000001 0.0 0.0
0.6125 0.0 0.0
0.625 0.0 0.0
0.6375000000000001 0.0 0.0
0.65 0.0 0.0
0.6625000000000001 0.0 0.0
0.675 0.0 0.0
0.6875 0.0 0.0
0.7000000000000001 0.0 0.0
0.7125 0.0 0.0
0.7250000000000001 0.0 0.0
0.7375 0.0 0.0
0.75 0.0 0.0
0.7625000000000001 0.0 0.0
0.775 0.0 0.0
0.7875000000000001 0.0 0.0
0.8 0.0 0.0
0.8125 0.0 0.0
0.8250000000000001 0.0 0.0
0.8375 0.0 0.0
0.8500000000000001 0.0 0.0
0.8625 0.0 0.0
0.875 0.0 0.0
0.8875000000000001 0.0 0.0
0.9 0.0 0.0
0.9125000000000001 0.0 0.0
0.925 0.0 0.0
0.9375 0.0 0.0
0.9500000000000001 0.0 0.0
0.9625 0.0 0.0
0.9750000000000001 0.0 0.0
0.9875 0.0 0.0
0.0125 0.5 0.0
0.025 0.5 0.0
0.037500000000000006 0.5 0.0
0.05 0.5 0.0
0.0625 0.5 0.0
0.07500000000000001 0.5 0.0
0.08750000000000001 0.5 0.0
0.1 0.5 0.0
0.1125 0.5 0.0
0.125 0.5 0.0
0.1375 0.5 0.0
0.15000000000000002 0.5 0.0
0.1625 0.5 0.0
0.17500000000000002 0.5 0.0
0.1875 0.5 0.0
0.2 0.5 0.0
0.21250000000000002 0.5 0.0
0.225 0.5 0.0
0.23750000000000002 0.5 0.0
0.25 0.5 0.0
0.2625 0.5 0.0
0.275 0.5 0.0
0.28750000000000003 0.5 0.0
0.30000000000000004 0.5 0.0
0.3125 0.5 0.0
0.325 0.5 0.0
0.3375 0.5 0.0
0.35000000000000003 0.5 0.0
0.36250000000000004 0.5 0.0
0.375 0.5 0.0
0.3875 0.5 0.0
0.4 0.5 0.0
0.41250000000000003 0.5 0.0
0.42500000000000004 0.5 0.0
0.4375 0.5 0.0
0.45 0.5 0.0
0.4625 0.5 0.0
0.47500000000000003 0.5 0.0
0.48750000000000004 0.5 0.0
0.5 0.5 0.0
0.5125000000000001 0.5 0.0
0.525 0.5 0.0
0.5375 0.5 0.0
0.55 0.5 0.0
0.5625 0.5 0.0
0.5750000000000001 0.5 0.0
0.5875 0.5 0.0
0.6000000000000001 0.5 0.0
0.6125 0.5 0.0
0.625 0.5 0.0
0.6375000000000001 0.5 0.0
0.65 0.5 0.0
0.6625000000000001 0.5 0.0
0.675 0.5 0.0
0.6875 0.5 0.0
0.7000000000000001 0.5 0.0
0.7125 0.5 0.0
0.7250000000000001 0.5 0.0
0.7375 0.5 0.0
0.75 0.5 0.0
0.7625000000000001 0.5 0.0
0.775 0.5 0.0
0.7875000000000001 0.5 0.0
0.8 0.5 0.0
0.8125 0.5 0.0
0.8250000000000001 0.5 0.0
0.8375 0.5 0.0
0.8500000000000001 0.5 0.0
0.8625 0.5 0.0
0.875 0.5 0.0
0.8875000000000001 0.5 0.0
0.9 0.5 0.0
0.9125000000000001 0.5 0.0
0.925 0.5 0.0
0.9375 0.5 0.0
0.9500000000000001 0.5 0.0
0.9625 0.5 0.0
0.9750000000000001 0.5 0.0
0.9875 0.5 0.0
0.0 0.0125 0.0
0.0 0.025 0.0
0.0 0.037500000000000006 0.0
0.0 0.05 0.0
0.0 0.0625 0.0
0.0 0.07500000000000001 0.0
0.0 0.08750000000000001 0.0
0.0 0.1 0.0
0.0 0.1125 0.0
0.0 0.125 0.0
0.0 0.1375 0.0
0.0 0.15000000000000002 0.0
0.0 0.1625 0.0
0.0 0.17500000000000002 0.0
0.0 0.1875 0.0
0.0 0.2 0.0
0.0 0.21250000000000002 0.0
0.0 0.225 0.0
0.0 0.23750000000000002 0.0
0.0 0.25 0.0
0.0 0.2625 0.0
0.0 0.275 0.0
0.0 0.28750000000000003 0.0
0.0 0.30000000000000004 0.0
0.0 0.3125 0.0
0.0 0.325 0.0
0.0 0.3375 0.0
0.0 0.35000000000000003 0.0
0.0 0.36250000000000004 0.0
0.0 0.375 0.0
0.0 0.3875 0.0
0.0 0.4 0.0
0.0 0.41250000000000003 0.0
0.0 0.42500000000000004 0.0
0.0 0.4375 0.0
0.0 0.45 0.0
0.0 0.4625 0.0
0.0 0.47500000000000003 0.0
0.0 0.48750000000000004 0.0
1.0 0.0125 0.0
1.0 0.025 0.0
1.0 0.037500000000000006 0.0
1.0 0.05 0.0
1.0 0.0625 0.0
1.0 0.07500000000000001 0.0
1.0 0.08750000000000001 0.0
1.0 0.1 0.0
1.0 0.1125 0.0
1.0 0.125 0.0
1.0 0.1375 0.0
1.0 0.15000000000000002 0.0
1.0 0.1625 0.0
1.0 0.17500000000000002 0.0
1.0 0.1875 0.0
1.0 0.2 0.0
1.0 0.21250000000000002 0.0
1.0 0.225 0.0
1.0 0.23750000000000002 0.0
1.0 0.25 0.0
1.0 0.2625 0.0
1.0 0.275 0.0
1.0 0.28750000000000003 0.0
1.0 0.30000000000000004 0.0
1.0 0.3125 0.0
1.0 0.325 0.0
1.0 0.3375 0.0
1.0 0.35000000000000003 0.0
1.0 0.36250000000000004 0.0
1.0 0.375 0.0
1.0 0.3875 0.0
1.0 0.4 0.0
1.0 0.41250000000000003 0.0
1.0 0.42500000000000004 0.0
1.0 0.4375 0.0
1.0 0.45 0.0
1.0 0.4625 0.0
1.0 0.47500000000000003 0.0
1.0 0.48750000000000004 0.0
0.0125 0.0125 0.0
0.025 0.0125 0.0
0.037500000000000006 0.0125 0.0
0.05 0.0125 0.0
0.0625 0.0125 0.0
0.07500000000000001 0.0125 0.0
0.08750000000000001 0.0125 0.0
0.1 0.0125 0.0
0.1125 0.0125 0.0
0.125 0.0125 0.0
0.1375 0.0125 0.0
0.15000000000000002 0.0125 0.0
0.1625 0.0125 0.0
0.17500000000000002 0.0125 0.0
0.1875 0.0125 0.0
0.2 0.0125 0.0
0.21250000000000002 0.0125 0.0
0.225 0.0125 0.0
0.23750000000000002 0.0125 0.0
0.25 0.0125 0.0
0.2625 0.0125 0.0
0.275 0.0125 0.0
0.28750000000000003 0.0125 0.0
0.30000000000000004 0.0125 0.0
0.3125 0.0125 0.0
0.325 0.0125 0.0
0.3375 0.0125 0.0
0.35000000000000003 0.0125 0.0
0.36250000000000004 0.0125 0.0
0.375 0.0125 0.0
0.3875 0.0125 0.0
0.4 0.0125 0.0
0.41250000000000003 0.0125 0.0
0.42500000000000004 0.0125 0.0
0.4375 0.0125 0.0
0.45 0.0125 0.0
0.4625 0.0125 0.0
0.47500000000000003 0.0125 0.0
0.48750000000000004 0.0125 0.0
0.5 0.0125 0.0
0.5125000000000001 0.0125 0.0
0.525 0.0125 0.0
0.5375 0.0125 0.0
0.55 0.0125 0.0
0.5625 0.0125 0.0
0.5750000000000001 0.0125 0.0
0.5875 0.0125 0.0
0.6000000000000001 0.0125 0.0
0.6125 0.0125 0.0
0.625 0.0125 0.0
0.6375000000000001 0.0125 0.0
0.65 0.0125 0.0
0.6625000000000001 0.0125 0.0
0.675 0.0125 0.0
0.6875 0.0125 0.0
0.7000000000000001 0.0125 0.0
0.7125 0.0125 0.0
0.7250000000000001 0.0125 0.0
0.7375 0.0125 0.0
0.75 0.0125 0.0
0.7625000000000001 0.0125 0.0
0.775 0.0125 0.0
0.7875000000000001 0.0125 0.0
0.8 0.0125 0.0
0.8125 0.0125 0.0
0.8250000000000001 0.0125 0.0
0.8375 0.0125 0.0
0.8500000000000001 0.0125 0.0
0.8625 0.0125 0.0
0.875 0.0125 0.0
0.8875000000000001 0.0125 0.0
0.9 0.0125 0.0
0.9125000000000001 0.0125 0.0
0.925 0.0125 0.0
0.9375 0.0125 0.0
0.9500000000000001 0.0125 0.0
0.9625 0.0125 0.0
0.9750000000000001 0.0125 0.0
0.9875 0.0125 0.0
0.0125 0.025 0.0
0.025 0.025 0.0
0.037500000000000006 0.025 0.0
0.05 0.025 0.0
0.0625 0.025 0.0
0.07500000000000001 0.025 0.0
0.08750000000000001 0.025 0.0
0.1 0.025 0.0
0.1125 0.025 0.0
0.125 0.025 0.0
0.1375 0.025 0.0
0.15000000000000002 0.025 0.0
0.1625 0.025 0.0
0.17500000000000002 0.025 0.0
0.1875 0.025 0.0
0.2 0.025 0.0
0.21250000000000002 0.025 0.0
0.225 0.025 0.0
0.23750000000000002 0.025 0.0
0.25 0.025 0.0
0.2625 0.025 0.0
0.275 0.025 0.0
0.28750000000000003 0.025 0.0
0.30000000000000004 0.025 0.0
0.3125 0.025 0.0
0.325 0.025 0.0
0.3375 0.025 0.0
0.35000000000000003 0.025 0.0
0.36250000000000004 0.025 0.0
0.375 0.025 0.0
0.3875 0.025 0.0
0.4 0.025 0.0
0.41250000000000003 0.025 0.0
0.42500000000000004 0.025 0.0
0.4375 0.025 0.0
0.45 0.025 0.0
0.4625 0.025 0.0
0.47500000000000003 0.025 0.0
0.48750000000000004 0.025 0.0
0.5 0.025 0.0
0.5125000000000001 0.025 0.0
0.525 0.025 0.0
0.5375 0.025 0.0
0.55 0.025 0.0
0.5625 0.025 0.0
0.5750000000000001 0.025 0.0
0.5875 0.025 0.0
0.6000000000000001 0.025 0.0
0.6125 0.025 0.0
0.625 0.025 0.0
0.6375000000000001 0.025 0.0
0.65 0.025 0.0
0.6625000000000001 0.025 0.0
0.675 0.025 0.0
0.6875 0.025 0.0
0.7000000000000001 0.025 0.0
0.7125 0.025 0.0
0.7250000000000001 0.025 0.0
0.7375 0.025 0.0
0.75 0.025 0.0
0.7625000000000001 0.025 0.0
0.775 0.025 0.0
0.7875000000000001 0.025 0.0
0.8 0.025 0.0
0.8125 0.025 0.0
0.8250000000000001 0.025 0.0
0.8375 0.025 0.0
0.8500000000000001 0.025 0.0
0.8625 0.025 0.0
0.875 0.025 0.0
0.8875000000000001 0.025 0.0
0.9 0.025 0.0
0.9125000000000001 0.025 0.0
0.925 0.025 0.0
0.9375 0.025 0.0
0.9500000000000001 0.025 0.0
0.9625 0.025 0.0
0.9750000000000001 0.025 0.0
0.9875 0.025 0.0
0.0125 0.037500000000000006 0.0
0.025 0.037500000000000006 0.0
0.037500000000000006 0.037500000000000006 0.0
0.05 0.037500000000000006 0.0
0.0625 0.037500000000000006 0.0
0.07500000000000001 0.037500000000000006 0.0
0.08750000000000001 0.037500000000000006 0.0
0.1 0.037500000000000006 0.0
0.1125 0.037500000000000006 0.0
0.125 0.037500000000000006 0.0
0.1375 0.037500000000000006 0.0
0.15000000000000002 0.037500000000000006 0.0
0.1625 0.037500000000000006 0.0
0.17500000000000002 0.037500000000000006 0.0
0.1875 0.037500000000000006 0.0
0.2 0.037500000000000006 0.0
0.21250000000000002 0.037500000000000006 0.0
0.225 0.037500000000000006 0.0
0.23750000000000002 0.037500000000000006 0.0
0.25 0.037500000000000006 0.0
0.2625 0.037500000000000006 0.0
0.275 0.037500000000000006 0.0
0.28750000000000003 0.037500000000000006 0.0
0.30000000000000004 0.037500000000000006 0.0
0.3125 0.037500000000000006 0.0
0.325 0.037500000000000006 0.0
0.3375 0.037500000000000006 0.0
0.35000000000000003 0.037500000000000006 0.0
0.36250000000000004 0.037500000000000006 0.0
0.375 0.037500000000000006 0.0
0.3875 0.037500000000000006 0.0
0.4 0.037500000000000006 0.0
0.41250000000000003 0.037500000000000006 0.0
0.42500000000000004 0.037500000000000006 0.0
0.4375 0.037500000000000006 0.0
0.45 0.037500000000000006 0.0
0.4625 0.037500000000000006 0.0
0.47500000000000003 0.037500000000000006 0.0
0.48750000000000004 0.037500000000000006 0.0
0.5 0.037500000000000006 0.0
0.5125000000000001 0.037500000000000006 0.0
0.525 0.037500000000000006 0.0
0.5375 0.037500000000000006 0.0
0.55 0.037500000000000006 0.0
0.5625 0.037500000000000006 0.0
0.5750000000000001 0.037500000000000006 0.0
0.5875 0.037500000000000006 0.0
0.6000000000000001 0.037500000000000006 0.0
0.6125 0.037500000000000006 0.0
0.625 0.037500000000000006 0.0
0.6375000000000001 0.037500000000000006 0.0
[...]
CELL_DATA 3200
SCALARS phi float 1
LOOKUP_TABLE CellColors
0.11945777096870595
0.12109913122886623
0.14311348658166406
0.15269150871462406
0.15976980667911825
0.16613136061813655
0.17213354980781495
0.17787376853206738
0.18339278550734966
0.1887129826686311
0.19384764198351623
0.19880455639970984
0.20358808387463934
0.20820049866649307
0.21264291254106488
0.2169159042603538
0.22101994470342473
0.22495567727609994
0.22872409484537048
0.2323266425242115
0.23576526700234363
0.23904242767185738
0.24216108082608578
0.2451246454298969
0.24793695691999157
0.25060221391715215
0.2531249215494763
0.25550983411636713
0.25776189907248975
0.2598862037207911
0.26188792553472545
0.26377228667630365
0.2655445130073044
0.26720979769732567
0.26877326939003854
0.27023996478821694
0.2716148054483353
0.2729025785258135
0.2741079211790739
0.27523530831889637
0.2762890433778262
0.27727325177059287
0.27819187672117857
0.279048677143632
0.2798472272815982
0.28059091783467494
0.2812829583272156
0.2819263805049012
0.28252404257579217
0.28307863414331813
0.2835926817087802
0.28406855464893693
0.2845084716004195
0.2849145072074435
0.2852885992126354
0.2856325558948908
0.2859480638834586
0.2862366964070087
0.2864999220713301
0.28673911430340127
0.2869555616565642
0.2871504792477068
0.28732502170112695
0.28748029811742526
0.2876173897898687
0.28773737168977764
0.2878413391892626
0.28793044218231745
0.2880059298737586
0.2880692113796835
0.28812194046564205
0.2881661385404601
0.2882043811289031
0.28824009541925083
0.28827806475338413
0.2883253485205467
0.28839311039156096
0.2885006327638881
0.2886409787664431
0.3623179290581155
0.17544817328893053
0.18560200388054576
0.206500565791068
0.21592826953096075
0.2218253501486302
0.22696299292220468
0.23208237516096103
0.23731384518874815
0.24263253741621799
0.24798603039406228
0.2533256535984974
0.2586119146881522
0.2638137934367379
0.26890706228311895
0.273872815309194
0.2786963657471379
0.2833664447010732
0.2878746125737346
0.29221481292694695
0.2963830221462772
0.30037696287540777
0.3041958616485715
0.30784023831067553
0.3113117195888363
0.3146128721211368
0.3177470519979532
0.32071826903611395
0.3235310645242293
0.3261904014846014
0.3287015666768584
0.3310700835915038
0.33330163571583915
0.3354019993434053
0.33737698521610715
0.33923238829509056
0.3409739449753132
0.34260729708313487
0.3441379620213498
0.3455713084523785
0.3469125369377381
0.34816666497803805
0.34933851592536813
0.3504327112712422
0.35145366584660587
0.3524055855072376
0.3532924669177082
0.35411809909028186
0.3548860663785782
0.35559975267036587
0.3562623465667183
0.3568768473755876
0.3574460717862678
0.3579726611263159
0.3584590891354269
0.35890767022173053
0.3593205681966884
0.3596998055170969
0.36004727309862883
0.3603647408076623
0.36065386878957895
0.36091621985614025
0.3611532732410458
0.3613664401478539
0.36155708166940104
0.3617265298719969
0.3618761131475824
0.3620071873765832
0.362121175103739
0.36221961588613355
0.36230423265104567
0.36237702127448207
0.36244037448008354
0.36249725763867185
0.36255146379033665
0.3626079876292834
0.362673564527539
0.3627573648834487
0.36287146064012465
0.36291278789535025
0.48657458873891246
0.1910034051924588
0.20475853104913944
0.22407983797940467
0.2343734560861414
0.2402905011147368
0.24460182953749965
0.2485183491196657
0.25247564663573785
0.2565874681228475
0.2608489690926752
0.2652182945880762
0.2696470236149161
0.2740905065795676
0.2785106674270017
0.2828761450521759
0.28716159914306394
0.29134685219575074
0.2954160862164007
0.2993571484408899
0.3031609726746463
0.30682109533529334
0.3103332498258236
0.3136950233241471
0.31690556354742094
0.31996532614577855
0.3228758557180363
0.3256395952817329
0.32825972019123
0.33073999327793147
0.3330846386946231
0.33529823234466066
0.33738560701786746
0.3393517705961159
0.34120183591545183
0.34294096099680815
0.3445742984984999
0.3461069533651472
0.347543947747195
0.3488901923539232
0.35015046347787254
0.35132938499477073
0.3524314147005349
0.35346083440056664
0.354421743218566
0.35531805364231167
0.3561534898741554
0.35693158810532544
0.3576556983836434
0.35832898779364586
0.3589544447154523
0.35953488397344363
0.3600729527268985
0.3605711369921974
0.36103176872076626
0.361457033388215
0.3618489780806268
0.3622095200944045
0.3625404560997506
0.36284347195551364
0.36312015330734376
0.3633719971497987
0.3636004246034986
0.3638067952504061
0.36399242347737465
0.36415859741365725
0.3643066012628702
0.36443774206089347
0.36455338225450995
0.364654979618598
0.364744137051683
0.3648226647376872
0.3648926566445444
0.3649565817152629
0.3650173818742898
0.36507854350664815
0.36514403546309826
0.3652177992974929
0.3653018898511522
0.36527311197441453
0.4900592069757816
0.19654611027884206
0.21231316913843834
0.23169664611442076
0.2440224654121043
0.2516928333636689
0.25691045948414265
0.26103317624258826
0.2647628447878167
0.26841873354589874
0.2721236203177379
0.27590716469105436
0.27975826083115074
0.2836502410614693
0.2875525395977774
0.291435824580856
0.29527404154428843
0.299045031553213
0.3027305101240306
0.3063157758405446
0.30978932579007695
0.31314245844651495
0.31636889467643
0.319464431486982
0.3224266317710842
0.3252545489812388
0.32794848437926144
0.33050977410573157
0.3329406029123566
0.33524384180592126
0.33742290705904393
0.33948163824887456
0.3414241931675542
0.343254957669227
0.34497846873743065
0.34659934919807345
0.3481222526871393
0.34955181765017523
0.3508926292722525
0.35214918836662207
0.35332588635174916
0.354426985534015
0.35545660399012435
0.356418704411359
0.35731708633344894
0.3581553812346299
0.3589370500414573
0.3596653826374698
0.36034349902476187
0.3609743518418172
0.36156072999046474
0.3621052631723753
0.3626104271789415
0.36307854981686216
0.36351181738607463
0.3639122816587109
0.36428186733424694
0.36462237997416264
0.3649355144477596
0.36522286395197784
0.36548592970319477
0.3657261314306475
0.36594481883787455
0.3661432842682476
0.3663227768653496
0.36648451854971775
0.36662972227405904
0.3667596129838745
0.36687545177738534
0.36697856305816245
0.3670703651126247
0.36715240229634893
0.36722637341941566
0.36729414597744225
0.36735772971859143
0.3674191508562875
0.3674801054427423
0.36754112748701234
0.3675998152252092
0.3675280852283224
0.49349342966159226
0.19891944913182488
0.2151617959634111
0.234400398825932
0.24831452051613928
0.25792175984272003
0.2646905367510233
0.26980774306841177
0.27405161880802065
0.27787608302851063
0.2815235131834615
0.28511119788298345
0.2886869065139665
0.292261737537646
0.2958286702544203
0.29937273456888525
0.30287644358731886
0.30632259334310263
0.30969562058297784
0.31298218057446003
0.3161713008579043
0.31925431609822114
0.32222469676292986
0.3250778290698554
0.327810781797733
0.33042207669610424
0.332911472188046
0.33527976562421624
0.3375286149035734
0.3396603799291569
0.3416779831195481
0.3435847877041376
0.34538449233109075
0.3470810404401901
0.3486785428253849
0.35018121189651186
0.3515933063076278
0.3529190847058874
0.3541627674721156
0.3553285054680213
0.35642035490139856
0.3574422575105602
0.35839802534927023
0.35929132952668746
0.36012569231845687
0.3609044821254192
0.36163091081472437
0.3623080330347562
0.3629387471496807
0.36352579749272884
0.3640717776898397
0.364579134852034
0.3650501744789853
0.3654870659546895
0.3658918485476927
0.36626643786546526
0.3666126327263742
0.3669321224336581
0.36722649446435557
0.36749724263009187
0.3677457757553871
0.3679734269219357
0.3681814633862548
0.368371097289014
0.3685434972929899
0.3686998011224513
0.36884112928051954
0.36896859985257646
0.36908334357547656
0.3691865187446236
0.36927932407659214
0.36936300465541216
0.3694388435432626
0.36950812475585126
0.36957203926986204
0.3696314872077284
0.3696866978133586
0.3697365437829671
0.369777468540273
0.36968118821547985
0.49680581709815924
0.20011159942356674
0.21611177585504318
0.23486595710537445
0.24968230190967555
0.2608232427307983
0.26913912830538467
0.27551748067553067
0.28066255298263787
0.28506244327660124
0.2890280527229603
0.29274506160220515
0.2963175132809848
0.29979895216322394
0.30321295155098826
0.30656605520459934
0.30985570271224344
0.31307497787183874
0.3162153836476723
0.31926841581625687
0.322226414220975
0.32508297147971393
0.32783308298201475
0.33047314912015785
0.3330008944287513
0.3354152414224761
0.33771616495908047
0.339904545491827
0.3419820254593524
0.34395087581853045
0.34581387477019876
0.34757419960829555
0.34923533162986237
0.35080097350495576
0.35227497822690074
0.3536612885548987
0.35496388588931915
0.35618674754959856
0.35733381145654114
0.35840894733317735
0.35941593361694857
0.3603584393467128
0.36124001035773107
0.36206405917930606
0.3628338580851129
0.363552534801454
0.3642230704309983
0.3648482991992581
0.3654309096848777
0.3659734472458227
0.3664783174010737
0.36694778997354144
0.36738400384679376
0.3677889722208952
0.36816458828144233
0.368512631229477
0.36883477264218273
0.3691325831367964
0.36940753927650216
0.36966103084362095
0.36989436847060947
0.37010879154568466
0.37030547647186873
0.3704855452759386
0.3706500747451397
0.3708001052802623
0.3709366500950402
0.3710607042380707
0.3711732517094722
0.37127526972549846
0.37136772744355084
0.37145157356365366
0.3715277055332503
0.37159690785316773
0.3716597381353258
0.37171633922625574
0.3717661314339693
0.37180737691301396
0.3718366576252384
0.37172608130058077
0.49996343486237005
0.20078876437414567
0.21628792650026743
0.23437668087770397
0.24956497528958377
0.26174563746046564
0.27133841434869144
0.27893606927503045
0.28509948223789094
0.2902768631767765
0.29479353907342504
0.2988710521757215
0.30265316575422674
0.3062292403068221
0.3096523086386841
0.31295200148539803
0.31614337456799224
0.31923276334220724
0.3222215745974491
0.32510868707404017
0.3278919477723893
0.33056906795742774
0.33313812817288746
0.3355978434781487
0.3379476737930988
0.3401878382685622
0.34231927402265705
0.34434356425494483
0.3462628519622769
0.3480797495117133
0.3497972503326613
0.351418646388548
0.35294745333310906
0.3543873440770242
0.3557420908433536
0.3570155153753437
0.35821144670127164
0.3593336857731452
0.3603859762868384
0.3613719810062449
0.36229526294779785
0.36315927082947763
0.36396732823154715
0.3647226259564426
0.36542821711357637
0.3660870144960625
0.3667017898599396
0.3672751747526366
0.36780966258337283
0.3683076116762259
0.3687712490909714
0.36920267503051685
0.36960386770120424
0.3699766885328387
0.3703228876810595
0.370644109755187
0.3709418997546031
0.3712177092366086
0.3714729023629426
0.371708762313834
0.3719264979837164
0.37212725048046197
0.37231209972902496
0.3724820710445168
0.37263814155198877
0.3727812460821382
0.3729122822565931
0.37303211405385894
0.37314157267778836
0.3732414530566706
0.3733325032364818
0.37341540056090333
0.37349071116037336
0.37355882321244
0.37361984268836973
0.373673440321527
0.37371864861809523
0.37375360877018443
0.37377537359428037
0.373656056965493
0.5029482070333334
0.20120935634569476
0.2161510362888561
0.2335258740194901
0.2487514585956768
0.2615620997963994
0.27210799365522687
0.28074572419718924
0.28788247051155164
0.29388930568165694
0.29906716115627396
0.3036431243912249
0.3077803570996423
0.31159192903977234
0.3151539778804933
0.31851652199166924
0.32171168683918083
0.3247596765073072
0.3276729756533252
0.33045923502444896
0.3331232116193939
0.3356680498410079
0.3380961050857059
0.3404094554139056
0.3426102058562958
0.3447006544176846
0.3466833674039551
0.3485611980749951
0.35033727096720674
0.3520149469290693
0.3535977787818677
0.3550894639749977
0.3564937981598523
0.35781463195164553
0.35905583206514996
0.3602212473029288
0.3613146794495163
0.36233985887421544
0.36330042451636135
0.36419990787594425
0.36504172061545953
0.36582914537781386
0.36656532943014963
0.36725328076129776
0.3678958662705115
0.3684958117145766
0.36905570309729707
0.36957798920704427
0.3700649850584
0.3705188760182231
0.37094172242972434
0.3713354645908092
0.371701927975711
0.37204282862128435
0.37235977862195757
0.37265429168855746
0.37292778872430576
0.3731816038914055
0.3734169893674501
0.37363512102702473
0.37383710470904025
0.37402398102617473
0.37419673045066515
0.37435627798773946
0.374503497291682
0.374639213744625
0.37476420609409766
0.3748792059893094
0.37498489404342
0.3750818907720543
0.37517074273807505
0.37525189092906575
0.3753256290454206
0.37539204540500054
0.3754509356221015
0.375501693911071
0.37554318536017334
0.37557361761864155
0.37559048847602877
0.3754654983209496
0.5057486102458083
0.2014879232405678
0.21589638917691176
0.2325827500773742
0.24765800690101047
0.26080471873371175
0.2720164008592884
0.28147964594564906
0.28946702812160013
0.2962629491462114
0.3021231516905013
0.30725871361861096
0.3118344793266562
0.31597441802095316
0.3197693352458633
0.3232845472157679
0.3265664995219738
0.3296480529138132
0.3325525090222507
0.3352965784070797
0.33789251118201064
0.3403496027068719
0.3426752319024973
0.34487556611834075
0.34695603252807083
0.34892161903344376
0.35077706386665264
0.3525269661931787
0.35417584562408283
0.35572816862269085
0.35718835443102886
0.35856076907877665
0.3598497131483628
0.36105940694778177
0.3621939753603224
0.3632574336963142
0.3642536752624429
0.3651864609911995
0.3660594112274369
0.36687599964682044
0.3676395492082591
0.36835322998293885
0.36902005866996757
0.3696428996072522
0.3702244670599273
0.3707673285601743
0.37127390909700003
0.37174649594543924
0.372187243961054
0.3725981811823592
0.3729812145963476
0.37333813596617244
0.37367062764643083
0.37398026833373516
0.3742685387224264
0.374536827051774
0.3747864345153073
0.3750185805752903
0.3752344078185077
0.3754349867989457
0.3756213206955209
0.3757943494817258
0.3759549537144773
0.37610395743867003
0.37624213019488045
0.3763701878270507
0.3764887914195495
0.37659854400345827
0.3766999835077115
0.37679357082410375
0.3768796713381697
0.3769585262564318
0.37703021403436443
0.37709459997008177
0.3771512709104812
0.3771994591546266
0.377237968632191
0.37726511483673447
0.37727872912733207
0.37714982431243804
0.5083563940121023
0.20168123588834616
0.21560930865920797
0.2316665890977927
0.24649878825293858
0.2597868267361977
0.27143907691895874
0.2815275498188755
0.29021858338998857
0.2977160479938453
0.3042236231629423
0.3099242569718781
0.31497190738559133
0.3194907069676588
0.3235779192137215
0.3273083597442037
0.33073897214299985
0.33391293782852116
0.33686309011634247
0.3396146223261688
0.34218715850065584
0.34459630156587473
0.34685476829624495
0.3489732078041852
0.35096078643053075
0.35282559554237597
0.35457493596214434
0.3562155116276406
0.35775356051419066
0.35919494198281016
0.3605451944870344
0.36180957349274095
0.3629930764626866
0.36410045958662623
0.36513624939867784
0.36610475135684106
0.3670100567034942
0.3678560484629304
0.36864640711433705
0.36938461626973096
0.3700739685703386
0.3707175719030647
0.37131835597551516
0.37187907924200647
0.3724023361322087
0.3728905644967605
0.3733460531914284
0.37377094969834235
0.37416726767974395
0.3745368943978155
0.37488159791486697
0.3752030340114977
0.37550275280260814
0.3757822050324872
0.37604274804910565
0.3762856514569858
0.3765121024388614
0.37672321073773374
0.3769200132210569
0.37710347809466194
0.3772745086789878
0.37743394628993804
0.3775825733128041
0.3777211147929091
0.3778502382720921
0.3779705530524001
0.37808260712884145
0.37818688204084877
0.3782837839088204
0.37837362994043133
0.37845662956639725
0.37853285829188693
0.37860222369028673
0.3786644242707646
0.3787189048532009
0.3787648028655256
0.37880090369759895
0.3788256172443547
0.37883699781639646
0.3787052367709101
0.5107651444931061
0.20182005051918323
0.21532765120521666
0.23082740604551932
0.24538098839252986
0.258688785027104
0.270616708087665
0.28116299797082
0.2904152066434776
0.29850942960228616
0.30559900138077567
0.31183407014462844
0.317350382031022
0.32226461308621673
0.3266737834071509
0.33065685907109044
0.3342773032640787
0.33758582476783244
0.34062293868654125
0.34342117731458455
0.3460068989840493
0.34840172235522177
0.3506236409748008
0.35268786918576694
0.35460748036470763
0.35639388169466524
0.358057166472151
0.35960637382350547
0.36104968077603206
0.36239454484474
0.36364781082032227
0.36481579181874313
0.36590433188033034
0.3669188553353378
0.3678644066216351
0.3687456831624155
0.3695670631078237
0.3703326292287651
0.37104618989382715
0.3717112977983949
0.3723312669598695
0.37290918833919307
0.3734479443586557
0.3739502225059833
0.3744185281530686
0.3748551966642789
0.37526240483594403
0.3756421816956673
0.3759964186545547
0.3763268790194023
0.37663520686023455
0.37692293522307574
0.37719149372211935
0.3774422155332717
0.3776763438205275
0.37789503761849086
0.3780993771808158
0.3782903688001149
0.3784689490787379
0.37863598864446135
0.37879229523926833
0.37893861558283815
0.37907563780577413
0.3792039918847
0.37932424785256125
0.37943691391296125
0.3795424320050208
0.37964117151910215
0.37973341936513016
0.37981936613019085
0.3798990881471718
0.3799725241887725
0.3800394463064895
0.380099428037625
0.38015181282647426
0.3801956791674407
0.38022980492713193
0.3802526671730095
0.3802624626988404
0.3801285148040938
0.5129696082729961
0.20192223592894973
0.21506798926705956
0.23008328509722614
0.24435580810057225
0.2576123195480263
0.2697006077115855
0.28057317329998077
0.2902614716405401
0.2988478750779866
0.30644138739815113
0.31315959622090067
0.31911693065870145
0.3244180671747712
0.3291550316617479
0.3334066626190175
0.33723940988245155
0.34070877029270896
0.34386092192984835
0.3467343131970379
0.3493610818459809
0.3517682607231606
0.35397877115768783
0.35601222157379603
0.3578855424132555
0.35961348453471526
0.36120900942082523
0.3626835939196462
0.36404746921103853
0.36530980927860945
0.36647888089696135
0.36756216433949246
0.3685664517558954
0.3694979284161079
0.37036224065973483
0.37116455341727306
0.37190959940550933
0.3726017215981958
0.3732449102177529
0.3738428352084563
0.3743988749779775
0.37491614201433987
0.3753975058743916
0.37584561393448096
0.37626291021244745
0.37665165249710625
0.3770139279603663
0.3773516674080719
0.37766665826888707
0.3779605564076305
0.378234896837074
0.3784911033837176
0.3787304973950197
0.37895430555468784
0.3791636668703296
0.379359638888044
0.3795432031694567
0.37971527005546973
0.3798766827197733
0.38002822050055957
0.3801706014102644
0.3803044833290136
0.38043046582456386
0.38054908956002587
0.38066083342141876
0.380766111809895
0.38086526930730885
0.38095857382837073
0.38104620633857916
0.3811282473016421
0.38120466030299466
0.3812752715401296
0.3813397451431227
0.38139755928337227
0.38144798120036655
0.38149004484032656
0.38152252478829113
0.38154394040696293
0.38155257044406127
0.3814168841838444
0.5149653378758006
0.2019987589095648
0.21483708604276217
0.22943782747144226
0.24344544288530928
0.25661335961396803
0.2687844840407283
0.27988399895376714
0.2899045511728854
0.2988875760671486
0.30690525539091507
0.31404561468793235
0.32040159245168137
0.32606383735396977
0.33111652314798257
0.3356353471865805
0.3396869690499118
0.3433293118202776
0.3466123163558254
0.3495788846385849
0.3522658482190074
0.35470487485880325
0.3569232747951095
0.3589446933042845
0.36078969415661766
0.3624762438382778
0.3640201108013473
0.365435193755298
0.3667337918948081
0.3679268281152379
0.3690240344308945
0.3700341070524163
0.3709648370418071
0.37182322119711564
0.37261555677005
0.37334752285430617
0.37402425064514677
0.3746503843432405
0.37523013416642886
0.3757673226588931
0.37626542531680185
0.3767276063608458
0.37715675036277907
0.3775554903106401
0.3779262325974766
0.3782711793256294
0.37859234824046967
0.3788915905699853
0.37917060697518323
0.37943096177892405
0.3796740956236656
0.3799013366856433
0.38011391058428706
0.3803129490987909
0.3804994977935796
0.3806745226405532
0.38083891570114947
0.3809934999172669
0.3811390330273539
0.3812762106031414
0.3814056680831056
0.3815279817058451
0.38164366960633217
0.38175319028069565
0.3818569392315768
0.38195524566083244
0.38204836658416036