# vtk DataFile Version 3.0
jCFD simulation data
ASCII
DATASET UNSTRUCTURED_GRID
POINTS 3321 double
0.0 0.0 0.0
1.0 0.0 0.0
0.0 0.5 0.0
1.0 0.5 0.0
0.0125 0.0 0.0
0.025 0.0 0.0
0.037500000000000006 0.0 0.0
0.05 0.0 0.0
0.0625 0.0 0.0
0.07500000000000001 0.0 0.0
0.08750000000000001 0.0 0.0
0.1 0.0 0.0
0.1125 0.0 0.0
0.125 0.0 0.0
0.1375 0.0 0.0
0.15000000000000002 0.0 0.0
0.1625 0.0 0.0
0.17500000000000002 0.0 0.0
0.1875 0.0 0.0
0.2 0.0 0.0
0.21250000000000002 0.0 0.0
0.225 0.0 0.0
0.23750000000000002 0.0 0.0
0.25 0.0 0.0
0.2625 0.0 0.0
0.275 0.0 0.0
0.28750000000000003 0.0 0.0
0.30000000000000004 0.0 0.0
0.3125 0.0 0.0
0.325 0.0 0.0
0.3375 0.0 0.0
0.35000000000000003 0.0 0.0
0.36250000000000004 0.0 0.0
0.375 0.0 0.0
0.3875 0.0 0.0
0.4 0.0 0.0
0.41250000000000003 0.0 0.0
0.42500000000000004 0.0 0.0
0.4375 0.0 0.0
0.45 0.0 0.0
0.4625 0.0 0.0
0.47500000000000003 0.0 0.0
0.48750000000000004 0.0 0.0
0.5 0.0 0.0
0.5125000000000001 0.0 0.0
0.525 0.0 0.0
0.5375 0.0 0.0
0.55 0.0 0.0
0.5625 0.0 0.0
0.5750000000000001 0.0 0.0
0.5875 0.0 0.0
0.6000000000000001 0.0 0.0
0.6125 0.0 0.0
0.625 0.0 0.0
0.6375000000000001 0.0 0.0
0.65 0.0 0.0
0.6625000000000001 0.0 0.0
0.675 0.0 0.0
0.6875 0.0 0.0
0.7000000000000001 0.0 0.0
0.7125 0.0 0.0
0.7250000000000001 0.0 0.0
0.7375 0.0 0.0
0.75 0.0 0.0
0.7625000000000001 0.0 0.0
0.775 0.0 0.0
0.7875000000000001 0.0 0.0
0.8 0.0 0.0
0.8125 0.0 0.0
0.8250000000000001 0.0 0.0
0.8375 0.0 0.0
0.8500000000000001 0.0 0.0
0.8625 0.0 0.0
0.875 0.0 0.0
0.8875000000000001 0.0 0.0
0.9 0.0 0.0
0.9125000000000001 0.0 0.0
0.925 0.0 0.0
0.9375 0.0 0.0
0.9500000000000001 0.0 0.0
0.9625 0.0 0.0
0.9750000000000001 0.0 0.0
0.9875 0.0 0.0
0.0125 0.5 0.0
0.025 0.5 0.0
0.037500000000000006 0.5 0.0
0.05 0.5 0.0
0.0625 0.5 0.0
0.07500000000000001 0.5 0.0
0.08750000000000001 0.5 0.0
0.1 0.5 0.0
0.1125 0.5 0.0
0.125 0.5 0.0
0.1375 0.5 0.0
0.15000000000000002 0.5 0.0
0.1625 0.5 0.0
0.17500000000000002 0.5 0.0
0.1875 0.5 0.0
0.2 0.5 0.0
0.21250000000000002 0.5 0.0
0.225 0.5 0.0
0.23750000000000002 0.5 0.0
0.25 0.5 0.0
0.2625 0.5 0.0
0.275 0.5 0.0
0.28750000000000003 0.5 0.0
0.30000000000000004 0.5 0.0
0.3125 0.5 0.0
0.325 0.5 0.0
0.3375 0.5 0.0
0.35000000000000003 0.5 0.0
0.36250000000000004 0.5 0.0
0.375 0.5 0.0
0.3875 0.5 0.0
0.4 0.5 0.0
0.41250000000000003 0.5 0.0
0.42500000000000004 0.5 0.0
0.4375 0.5 0.0
0.45 0.5 0.0
0.4625 0.5 0.0
0.47500000000000003 0.5 0.0
0.48750000000000004 0.5 0.0
0.5 0.5 0.0
0.5125000000000001 0.5 0.0
0.525 0.5 0.0
0.5375 0.5 0.0
0.55 0.5 0.0
0.5625 0.5 0.0
0.5750000000000001 0.5 0.0
0.5875 0.5 0.0
0.6000000000000001 0.5 0.0
0.6125 0.5 0.0
0.625 0.5 0.0
0.6375000000000001 0.5 0.0
0.65 0.5 0.0
0.6625000000000001 0.5 0.0
0.675 0.5 0.0
0.6875 0.5 0.0
0.7000000000000001 0.5 0.0
0.7125 0.5 0.0
0.7250000000000001 0.5 0.0
0.7375 0.5 0.0
0.75 0.5 0.0
0.7625000000000001 0.5 0.0
0.775 0.5 0.0
0.7875000000000001 0.5 0.0
0.8 0.5 0.0
0.8125 0.5 0.0
0.8250000000000001 0.5 0.0
0.8375 0.5 0.0
0.8500000000000001 0.5 0.0
0.8625 0.5 0.0
0.875 0.5 0.0
0.8875000000000001 0.5 0.0
0.9 0.5 0.0
0.9125000000000001 0.5 0.0
0.925 0.5 0.0
0.9375 0.5 0.0
0.9500000000000001 0.5 0.0
0.9625 0.5 0.0
0.9750000000000001 0.5 0.0
0.9875 0.5 0.0
0.0 0.0125 0.0
0.0 0.025 0.0
0.0 0.037500000000000006 0.0
0.0 0.05 0.0
0.0 0.0625 0.0
0.0 0.07500000000000001 0.0
0.0 0.08750000000000001 0.0
0.0 0.1 0.0
0.0 0.1125 0.0
0.0 0.125 0.0
0.0 0.1375 0.0
0.0 0.15000000000000002 0.0
0.0 0.1625 0.0
0.0 0.17500000000000002 0.0
0.0 0.1875 0.0
0.0 0.2 0.0
0.0 0.21250000000000002 0.0
0.0 0.225 0.0
0.0 0.23750000000000002 0.0
0.0 0.25 0.0
0.0 0.2625 0.0
0.0 0.275 0.0
0.0 0.28750000000000003 0.0
0.0 0.30000000000000004 0.0
0.0 0.3125 0.0
0.0 0.325 0.0
0.0 0.3375 0.0
0.0 0.35000000000000003 0.0
0.0 0.36250000000000004 0.0
0.0 0.375 0.0
0.0 0.3875 0.0
0.0 0.4 0.0
0.0 0.41250000000000003 0.0
0.0 0.42500000000000004 0.0
0.0 0.4375 0.0
0.0 0.45 0.0
0.0 0.4625 0.0
0.0 0.47500000000000003 0.0
0.0 0.48750000000000004 0.0
1.0 0.0125 0.0
1.0 0.025 0.0
1.0 0.037500000000000006 0.0
1.0 0.05 0.0
1.0 0.0625 0.0
1.0 0.07500000000000001 0.0
1.0 0.08750000000000001 0.0
1.0 0.1 0.0
1.0 0.1125 0.0
1.0 0.125 0.0
1.0 0.1375 0.0
1.0 0.15000000000000002 0.0
1.0 0.1625 0.0
1.0 0.17500000000000002 0.0
1.0 0.1875 0.0
1.0 0.2 0.0
1.0 0.21250000000000002 0.0
1.0 0.225 0.0
1.0 0.23750000000000002 0.0
1.0 0.25 0.0
1.0 0.2625 0.0
1.0 0.275 0.0
1.0 0.28750000000000003 0.0
1.0 0.30000000000000004 0.0
1.0 0.3125 0.0
1.0 0.325 0.0
1.0 0.3375 0.0
1.0 0.35000000000000003 0.0
1.0 0.36250000000000004 0.0
1.0 0.375 0.0
1.0 0.3875 0.0
1.0 0.4 0.0
1.0 0.41250000000000003 0.0
1.0 0.42500000000000004 0.0
1.0 0.4375 0.0
1.0 0.45 0.0
1.0 0.4625 0.0
1.0 0.47500000000000003 0.0
1.0 0.48750000000000004 0.0
0.0125 0.0125 0.0
0.025 0.0125 0.0
0.037500000000000006 0.0125 0.0
0.05 0.0125 0.0
0.0625 0.0125 0.0
0.07500000000000001 0.0125 0.0
0.08750000000000001 0.0125 0.0
0.1 0.0125 0.0
0.1125 0.0125 0.0
0.125 0.0125 0.0
0.1375 0.0125 0.0
0.15000000000000002 0.0125 0.0
0.1625 0.0125 0.0
0.17500000000000002 0.0125 0.0
0.1875 0.0125 0.0
0.2 0.0125 0.0
0.21250000000000002 0.0125 0.0
0.225 0.0125 0.0
0.23750000000000002 0.0125 0.0
0.25 0.0125 0.0
0.2625 0.0125 0.0
0.275 0.0125 0.0
0.28750000000000003 0.0125 0.0
0.30000000000000004 0.0125 0.0
0.3125 0.0125 0.0
0.325 0.0125 0.0
0.3375 0.0125 0.0
0.35000000000000003 0.0125 0.0
0.36250000000000004 0.0125 0.0
0.375 0.0125 0.0
0.3875 0.0125 0.0
0.4 0.0125 0.0
0.41250000000000003 0.0125 0.0
0.42500000000000004 0.0125 0.0
0.4375 0.0125 0.0
0.45 0.0125 0.0
0.4625 0.0125 0.0
0.47500000000000003 0.0125 0.0
0.48750000000000004 0.0125 0.0
0.5 0.0125 0.0
0.5125000000000001 0.0125 0.0
0.525 0.0125 0.0
0.5375 0.0125 0.0
0.55 0.0125 0.0
0.5625 0.0125 0.0
0.5750000000000001 0.0125 0.0
0.5875 0.0125 0.0
0.6000000000000001 0.0125 0.0
0.6125 0.0125 0.0
0.625 0.0125 0.0
0.6375000000000001 0.0125 0.0
0.65 0.0125 0.0
0.6625000000000001 0.0125 0.0
0.675 0.0125 0.0
0.6875 0.0125 0.0
0.7000000000000001 0.0125 0.0
0.7125 0.0125 0.0
0.7250000000000001 0.0125 0.0
0.7375 0.0125 0.0
0.75 0.0125 0.0
0.7625000000000001 0.0125 0.0
0.775 0.0125 0.0
0.7875000000000001 0.0125 0.0
0.8 0.0125 0.0
0.8125 0.0125 0.0
0.8250000000000001 0.0125 0.0
0.8375 0.0125 0.0
0.8500000000000001 0.0125 0.0
0.8625 0.0125 0.0
0.875 0.0125 0.0
0.8875000000000001 0.0125 0.0
0.9 0.0125 0.0
0.9125000000000001 0.0125 0.0
0.925 0.0125 0.0
0.9375 0.0125 0.0
0.9500000000000001 0.0125 0.0
0.9625 0.0125 0.0
0.9750000000000001 0.0125 0.0
0.9875 0.0125 0.0
0.0125 0.025 0.0
0.025 0.025 0.0
0.037500000000000006 0.025 0.0
0.05 0.025 0.0
0.0625 0.025 0.0
0.07500000000000001 0.025 0.0
0.08750000000000001 0.025 0.0
0.1 0.025 0.0
0.1125 0.025 0.0
0.125 0.025 0.0
0.1375 0.025 0.0
0.15000000000000002 0.025 0.0
0.1625 0.025 0.0
0.17500000000000002 0.025 0.0
0.1875 0.025 0.0
0.2 0.025 0.0
0.21250000000000002 0.025 0.0
0.225 0.025 0.0
0.23750000000000002 0.025 0.0
0.25 0.025 0.0
0.2625 0.025 0.0
0.275 0.025 0.0
0.28750000000000003 0.025 0.0
0.30000000000000004 0.025 0.0
0.3125 0.025 0.0
0.325 0.025 0.0
0.3375 0.025 0.0
0.35000000000000003 0.025 0.0
0.36250000000000004 0.025 0.0
0.375 0.025 0.0
0.3875 0.025 0.0
0.4 0.025 0.0
0.41250000000000003 0.025 0.0
0.42500000000000004 0.025 0.0
0.4375 0.025 0.0
0.45 0.025 0.0
0.4625 0.025 0.0
0.47500000000000003 0.025 0.0
0.48750000000000004 0.025 0.0
0.5 0.025 0.0
0.5125000000000001 0.025 0.0
0.525 0.025 0.0
0.5375 0.025 0.0
0.55 0.025 0.0
0.5625 0.025 0.0
0.5750000000000001 0.025 0.0
0.5875 0.025 0.0
0.6000000000000001 0.025 0.0
0.6125 0.025 0.0
0.625 0.025 0.0
0.6375000000000001 0.025 0.0
0.65 0.025 0.0
0.6625000000000001 0.025 0.0
0.675 0.025 0.0
0.6875 0.025 0.0
0.7000000000000001 0.025 0.0
0.7125 0.025 0.0
0.7250000000000001 0.025 0.0
0.7375 0.025 0.0
0.75 0.025 0.0
0.7625000000000001 0.025 0.0
0.775 0.025 0.0
0.7875000000000001 0.025 0.0
0.8 0.025 0.0
0.8125 0.025 0.0
0.8250000000000001 0.025 0.0
0.8375 0.025 0.0
0.8500000000000001 0.025 0.0
0.8625 0.025 0.0
0.875 0.025 0.0
0.8875000000000001 0.025 0.0
0.9 0.025 0.0
0.9125000000000001 0.025 0.0
0.925 0.025 0.0
0.9375 0.025 0.0
0.9500000000000001 0.025 0.0
0.9625 0.025 0.0
0.9750000000000001 0.025 0.0
0.9875 0.025 0.0
0.0125 0.037500000000000006 0.0
0.025 0.037500000000000006 0.0
0.037500000000000006 0.037500000000000006 0.0
0.05 0.037500000000000006 0.0
0.0625 0.037500000000000006 0.0
0.07500000000000001 0.037500000000000006 0.0
0.08750000000000001 0.037500000000000006 0.0
0.1 0.037500000000000006 0.0
0.1125 0.037500000000000006 0.0
0.125 0.037500000000000006 0.0
0.1375 0.037500000000000006 0.0
0.15000000000000002 0.037500000000000006 0.0
0.1625 0.037500000000000006 0.0
0.17500000000000002 0.037500000000000006 0.0
0.1875 0.037500000000000006 0.0
0.2 0.037500000000000006 0.0
0.21250000000000002 0.037500000000000006 0.0
0.225 0.037500000000000006 0.0
0.23750000000000002 0.037500000000000006 0.0
0.25 0.037500000000000006 0.0
0.2625 0.037500000000000006 0.0
0.275 0.037500000000000006 0.0
0.28750000000000003 0.037500000000000006 0.0
0.30000000000000004 0.037500000000000006 0.0
0.3125 0.037500000000000006 0.0
0.325 0.037500000000000006 0.0
0.3375 0.037500000000000006 0.0
0.35000000000000003 0.037500000000000006 0.0
0.36250000000000004 0.037500000000000006 0.0
0.375 0.037500000000000006 0.0
0.3875 0.037500000000000006 0.0
0.4 0.037500000000000006 0.0
0.41250000000000003 0.037500000000000006 0.0
0.42500000000000004 0.037500000000000006 0.0
0.4375 0.037500000000000006 0.0
0.45 0.037500000000000006 0.0
0.4625 0.037500000000000006 0.0
0.47500000000000003 0.037500000000000006 0.0
0.48750000000000004 0.037500000000000006 0.0
0.5 0.037500000000000006 0.0
0.5125000000000001 0.037500000000000006 0.0
0.525 0.037500000000000006 0.0
0.5375 0.037500000000000006 0.0
0.55 0.037500000000000006 0.0
0.5625 0.037500000000000006 0.0
0.5750000000000001 0.037500000000000006 0.0
0.5875 0.037500000000000006 0.0
0.6000000000000001 0.037500000000000006 0.0
0.6125 0.037500000000000006 0.0
0.625 0.037500000000000006 0.0
0.6375000000000001 0.037500000000000006 0.0
[...]
CELL_DATA 3200
SCALARS phi float 1
LOOKUP_TABLE CellColors
0.0002277786824592936
0.00035596947098336595
0.0004144528060762537
0.00044626734665552083
0.0004679856607912069
0.00048422969252190584
0.0004966551777579839
0.0005060988982507435
0.0005131121815226333
0.0005181101980700399
0.0005214224639555082
0.0005233153691754037
0.0005240047981485287
0.0005236641835481295
0.0005224301047457719
0.0005204065333101856
0.0005176683882437368
0.0005142648132688089
0.000510222420299872
0.0005055486273697375
0.0005002351376061975
0.0004942615468096428
0.00048759902609785464
0.00048021399871884087
0.00047207171364792506
0.00046313961158657966
0.00045339038042321113
0.0004428046057341283
0.00043137293723498544
0.00041909771230045495
0.0004059940015194784
0.0003920900671095784
0.00037742725110407954
0.00036205933473850495
0.0003460514318065762
0.0003294784956590564
0.00031242353116733536
0.00029497560829839543
0.000277227775431416
0.000259274964207787
0.00024121196925103487
0.00022313157354340786
0.00020512287576764112
0.00018726986059559956
0.00016965023778008363
0.00015233456182867997
0.00013538563170580642
0.00011885815981609846
0.0001027986916806158
8.724575223533583e-5
7.22301913984765e-5
5.777570020358464e-5
4.389946904139664e-5
3.0612961024511175e-5
1.7922775810882932e-5
5.831582035402423e-6
-5.6609005307682965e-6
-1.6556885147180384e-5
-2.685948224277094e-5
-3.657165544103429e-5
-4.569518060046893e-5
-5.42296194543028e-5
-6.217132149432235e-5
-6.951247189307524e-5
-7.62402101579386e-5
-8.23358547841842e-5
-8.777428469835752e-5
-9.252355046402996e-5
-9.654481918215233e-5
-9.979279897442206e-5
-0.00010221684299734557
-0.00010376299567433064
-0.00010437729896682732
-0.00010401067994305329
-0.00010262561974576285
-0.0001002047552005403
-9.676260865308187e-5
-9.239717573632292e-5
-8.706293450162933e-5
-8.440231841135502e-5
0.0005709813459744407
0.0009819544377022607
0.0011893140515696456
0.0013076191816242333
0.0013853310098715231
0.001440253780924545
0.001480439668261529
0.0015100775468179389
0.0015316427619448947
0.0015467762269398444
0.001556661362122339
0.0015621973286646506
0.0015640853440446645
0.0015628754609842011
0.0015589943225650263
0.0015527634627386065
0.001544412944560739
0.0015340928631284597
0.0015218840662824455
0.0015078087851782
0.0014918414743223414
0.0014739199080105667
0.0014539564190088193
0.001431849063085317
0.0014074924325029703
0.0013807878143261602
0.0013516523909183065
0.0013200272030840527
0.0012858836422846697
0.001249228298488966
0.0012101060618715225
0.0011686014543561502
0.0011248382454666752
0.001078977480536516
0.0010312141132121113
0.000981772484471047
0.0009309009254339263
0.0008788657741611513
0.0008259451046850211
0.0007724224417654846
0.000718580711806281
0.0006646966409485041
0.0006110357675317204
0.0005578481896447594
0.0005053651230376132
0.0004537963023567075
0.00040332822183313124
0.00035412318123758914
0.00030631907974046347
0.0002600298842622754
0.00021534668945325156
0.00017233928276791271
0.0001310581291679813
9.153669467920272e-5
5.3794035193405624e-5
1.783758548313222e-5
-1.633390762650468e-5
-4.872735549168809e-5
-7.935224167379562e-5
-0.00010821751504801186
-0.0001353284950717498
-0.0001606838238612602
-0.0001842725061782327
-0.0002060710912775016
-0.00022604107189622095
-0.0002441266084767894
-0.00026025273533023457
-0.0002743242760727095
-0.00028622579717643373
-0.0002958230734885955
-0.0003029667462042067
-0.0003074991498206598
-0.0003092657216718639
-0.0003081331208780919
-0.0003040176232097036
-0.00029693172441646324
-0.0002870653392664525
-0.0002750477833155983
-0.0002607222402549975
-0.00025258568688202705
0.0007673526129544958
0.0014817834460668872
0.0018738663324846657
0.0021058632443870275
0.0022569222450599404
0.0023607300386426005
0.0024342761145887144
0.002486936204137
0.0025242827017852025
0.0025498865278271174
0.002566197119991604
0.00257498631084164
0.0025775807745214868
0.0025749892618806653
0.00256797628025246
0.002557108108213632
0.0025427845377463225
0.0025252634463095664
0.0025046820115607413
0.002481076570944002
0.0024544020941522754
0.0024245516138493768
0.0023913755790888665
0.0023547008655123184
0.0023143490388007983
0.002270153403498842
0.0022219743619591157
0.0021697126358632664
0.002113319980746422
0.002052807119771671
0.001988248741777405
0.0019197855376264516
0.001847623378518019
0.0017720298616499114
0.0016933285533229992
0.0016118913402959067
0.001528129362223111
0.00144248299935904
0.0013554114312793598
0.0012673822047679188
0.0011788612314926276
0.0010903035595910674
0.0010021451906062984
0.000914796135442407
0.0008286348268839716
0.0007440039363334974
0.0006612075818133351
0.0005805098648550787
0.0005021346365261196
0.0004262663673895432
0.0003530519816866688
0.0002826035110182796
0.0002150014255156373
0.00015029850902723325
8.852415729796131e-5
2.9688992684941725e-5
-2.6210295996772684e-5
-7.918596585817967e-5
-0.0001292541502158938
-0.0001764297643743784
-0.00022072144142418388
-0.00026212655596249333
-0.00030062640546191146
-0.0003361816419077064
-0.0003687280841145461
-0.0003981730994567869
-0.00042439283109434227
-0.00044723067616567967
-0.00046649761229172244
-0.0004819752574686263
-0.0004934229896857729
-0.0005005911555911403
-0.0005032435854761795
-0.0005011948121851662
-0.0004943717410430855
-0.0004829195750157309
-0.0004673816789476998
-0.00044916115261874707
-0.0004281738674523705
-0.0004149874348119989
0.0009001875654643262
0.001878296380259151
0.0024591965376898994
0.002818659309017684
0.003055947908425863
0.003218460595255919
0.0033320902360749723
0.003412005888764239
0.003467575091450469
0.0035048865501258707
0.003528092508748629
0.003540142591828164
0.003543195082482953
0.003538853885353034
0.003528310206195817
0.003512431792277537
0.00349182337965847
0.0034668715314071625
0.0034377812537256082
0.0034046084494327978
0.003367290353380374
0.003325674904320918
0.0032795493136816845
0.003228667651242908
0.0031727770139619903
0.0031116417067773468
0.0030450648505173155
0.002972906821910231
0.002895100063861878
0.0028116599154849073
0.0027226912786240667
0.002628391115523535
0.002529046950907011
0.002425031718658354
0.002316795436914493
0.0022048542997100302
0.0020897778564806673
0.0019721749673658993
0.0018526792203146535
0.0017319344491052234
0.0016105809176797205
0.00148924264214796
0.001368516215219943
0.0012489613882812217
0.001131093559875564
0.0010153782226902065
0.000902227338157387
0.0007919975409961795
0.0006849900263193957
0.0005814519389299951
0.00048157906660291615
0.00038551963430123623
0.00029337900186089005
0.00020522508096301772
0.00012109430553188728
4.0998010537064354e-5
-3.507090470768163e-5
-0.00010713113331079865
-0.00017520602646583822
-0.00023931664650463734
-0.00029947488275679495
-0.0003556767119765749
-0.00040789570372305923
-0.0004560769059225363
-0.0005001313027421146
-0.0005399311246183045
-0.0005753064223373898
-0.0006060435147138829
-0.0006318862168915673
-0.0006525412104897024
-0.0006676896255421754
-0.0006770080423187835
-0.0006802040094331214
-0.0006770744067395576
-0.0006676005193519998
-0.0006521039834612285
-0.0006314851319327525
-0.0006077952418881733
-0.0005807583361145234
-0.0005634868517512674
0.0009952961378283433
0.002187498868910537
0.002942705574244666
0.003431105439199498
0.0037608547964679807
0.0039888127654157364
0.004148248134638997
0.0042597240642111844
0.00433648582212932
0.004387395433423984
0.004418590221332364
0.004434446466385673
0.004438152171377595
0.004432055237884971
0.004417881171167569
0.004396874681546304
0.004369896982019087
0.004337497499712681
0.0042999709966533165
0.0042574064734932976
0.004209731410462428
0.004156753154990146
0.004098198179365675
0.004033749253297084
0.003963080166465883
0.0038858874211022583
0.0038019182284366984
0.0037109941616664407
0.0036130299261721683
0.0035080468670644783
0.003396181036705869
0.0032776858681291344
0.003152929724725596
0.0030223888041536534
0.002886636057967311
0.0027463268905572103
0.002602182542970323
0.002454972029868855
0.0023054935190076724
0.002154555961725685
0.0020029616837351685
0.0018514905191988255
0.0017008859317341014
0.001551843423648776
0.0014050013989728234
0.0012609345238425343
0.001120149524546514
0.0009830832818191672
0.0008501030205131804
0.0007215083556917825
0.0005975349372396728
0.0004783594322854764
0.00036410559463451875
0.0002548511894754092
0.00015063556639826714
5.146770108234342e-5
-4.2665446966306556e-5
-0.00013179038904977328
-0.00021593848365530845
-0.0002951373322607782
-0.0003694022903085729
-0.0004387281997254387
-0.0005030814763281736
-0.0005623927340621484
-0.0006165502061594168
-0.000665394342886097
-0.0007087141449788804
-0.0007462460599047965
-0.0007776766703002064
-0.000802651013414305
-0.0008207893055974671
-0.0008317162984565069
-0.0008351097650023978
-0.0008307781499701777
-0.0008187826471627499
-0.0007996275940761418
-0.0007745291880515193
-0.0007460830457253241
-0.0007138326547438665
-0.0006933829268898359
0.0010623510720785846
0.002421181205682643
0.003326326352621569
0.003935156313405017
0.004356507747171743
0.004652176792807188
0.004860585999605519
0.005006667177632244
0.005107138053628199
0.0051735451024043574
0.005214070291045407
0.005234632541362537
0.005239574697544929
0.0052321013487958545
0.005214564978698835
0.005188659301913985
0.005155555823205716
0.005116005834144641
0.005070421457330917
0.005018944019748945
0.004961504584235516
0.004897879290013199
0.004827740741489168
0.004750705789083094
0.004666379473028679
0.00457439460165905
0.004474446289167955
0.004366320787752347
0.004249918059732571
0.004125267718664042
0.0039925382088495396
0.003852039356346941
0.0037042186909458812
0.0035496521809589405
0.0033890302281084916
0.0032231399167570647
0.0030528445987559674
0.0028790619166250185
0.002702741328270047
0.0025248421042856598
0.002346312635856082
0.0021680717307915012
0.001990992401485015
0.0018158884743586865
0.0016435041864840145
0.0014745067900990235
0.0013094820651012413
0.001148932546020202
0.0009932782038748536
0.0008428592830061956
0.0006979409753905175
0.0005587196161762272
0.00042533009988702483
0.00029785424251101226
0.00017632984637859067
6.076025853843157e-5
-4.887575408085732e-5
-0.0001526139610481738
-0.0002504945831783538
-0.00034255228049117785
-0.00042880632856786524
-0.0005092511145977453
-0.0005838471208483304
-0.0006525126266358144
-0.0007151164597180699
-0.0007714722789091811
-0.0008213350936130148
-0.000864401056551832
-0.0009003120544947876
-0.0009286673464068364
-0.0009490455765767528
-0.0009610420929600762
-0.0009643288612069107
-0.000958747664994188
-0.0009444518313973111
-0.0009221193656272755
-0.00089323914301969
-0.0008608734172381058
-0.0008244244665485565
-0.0008016180302286167
0.001105596846954319
0.002587617481894134
0.003613899893836342
0.004327531542506769
0.0048332406759661484
0.005194058279351458
0.005451267272115912
0.005632853973835943
0.005758294752932772
0.005841464020384517
0.0058924387559696
0.005918644546456695
0.005925599995245376
0.005917411054185372
0.005897107505873249
0.005866879131743507
0.005828247917513618
0.005782199640627676
0.005729289499908967
0.005669731215986473
0.0056034751823015256
0.005530278959588587
0.005449771758968822
0.005361513523411797
0.005265048534009906
0.005159953084025507
0.0050458765841229075
0.004922575452899735
0.004789939266708854
0.004648008849811059
0.004496986260078585
0.004337236926712828
0.004169284498669245
0.003993799234954836
0.003811580993129475
0.00362353802861385
0.0034306629000014953
0.0032340067830245066
0.0030346534317703486
0.0028336939025689466
0.0026322029879061724
0.002431218111407563
0.0022317212267823337
0.0020346240586890134
0.0018407568340203133
0.0016508604873334053
0.0014655821896780172
0.0012854739483790522
0.0011109939560148086
0.0009425103273437095
0.0007803068492398556
0.0006245903758726392
0.0004754995241359151
0.00033311435751279153
0.0001974667853251188
6.855144435583684e-5
-5.3663132630572524e-5
-0.00016922322519076472
-0.0002781786510897692
-0.00038057163925024135
-0.00047642598283856535
-0.0005657366278783172
-0.0006484598990657643
-0.000724504642139236
-0.0007937246820019056
-0.0008559131738989379
-0.0009107996850369115
-0.0009580512213273866
-0.0009972789598322886
-0.0010280532363528224
-0.0010499304736303968
-0.0010624973587918805
-0.001065439862849931
-0.001058647835359864
-0.0010423699246629736
-0.0010174410792436574
-0.0009855780705180681
-0.0009502273949854358
-0.0009106677613427539
-0.0008862577083809964
0.001127167013814965
0.002692180657156756
0.003809136695719347
0.00460738508799897
0.005185164733472008
0.005604162061621854
0.005906546611413017
0.00612202618870307
0.00627198383972641
0.006372098407189419
0.006434034416298387
0.006466554690504885
0.006476269371703779
0.006468151819699166
0.006445903115038589
0.0064122173849282225
0.00636898174096412
0.006317433104541517
0.006258286391381903
0.006191843443892107
0.0061180885979971525
0.006036774390585449
0.005947499267141973
0.005849778045760745
0.005743105167044597
0.005627010342318185
0.005501106003312656
0.005365125958453516
0.005218954782599164
0.005062647710512402
0.004896441107445221
0.004720753926584778
0.004536180896339786
0.004343478477953205
0.004143544868904536
0.003937395486349298
0.0037261354348225198
0.003510930449432712
0.003292977710749228
0.0030734777697797168
0.002853608616089058
0.0026345026895346953
0.002417227394868247
0.00220276944541268
0.001992023150531579
0.0017857825811368765
0.001584737403438983
0.0013894720653465562
0.0012004679510087234
0.001018108083347631
0.00084268394692172
0.000674404018146644
0.0005134036206383638
0.000359755764323401
0.0002134826726093403
7.456774760645985e-5
-5.703223494377385e-5
-0.0001813748752024566
-0.0002985199939510254
-0.0004085177135080158
-0.000511396923281983
-0.0006071543070710841
-0.0006957441647319154
-0.0007770693510049326
-0.0008509737904027447
-0.0009172372255082044
-0.000975573140527276
-0.0010256312064059287
-0.0010670061661440181
-0.001099255885228765
-0.001121932420959208
-0.0011346315302111613
-0.0011370681775369409
-0.0011291884951745426
-0.00111133230665978
-0.001084468017883978
-0.0010504898490853163
-0.0010131330564305079
-0.0009715582573057657
-0.0009462381643303584
0.001128306806958548
0.0027383672650155466
0.003915096970574973
0.004775061401195687
0.005408981040299724
0.005875578447299793
0.006216394307327054
0.00646167161330863
0.006633839983488091
0.0067497833890312504
0.006822347616651158
0.006861364148641167
0.006874361896836622
0.006867074096928415
0.006843809190119011
0.006807730259336407
0.006761072646092163
0.006705319402897465
0.006641347709942278
0.006569554911221682
0.0064899697086212025
0.006402351873221212
0.0063062822919247785
0.0062012441014525094
0.006086694956738147
0.005962130057549716
0.005827135379310716
0.005681430558327608
0.005524901032493225
0.005357619315139285
0.00517985561494177
0.0049920783868819645
0.00479494575695249
0.004589289076713097
0.0043760901037716215
0.004156453456000747
0.003931576039503478
0.003702715108704508
0.0034711564876956373
0.0032381842871061915
0.0030050532077487333
0.0027729642549034735
0.0025430444158034064
0.0023163305958908524
0.002093757880580129
0.0018761519979872663
0.001664225709213473
0.0014585787470473043
0.0012597008589340342
0.0010679774809311815
0.000883697569880516
0.000707063144272428
0.0005382001233377791
0.00037717010227617654
0.00022398275343522075
7.860859372596865e-5
-5.900809670702563e-5
-0.00018893638394814217
-0.0003112459742738852
-0.0004259948414635618
-0.0005332173476849794
-0.0006329130527162596
-0.000725036469463823
-0.0008094881233854736
-0.0008861074206020893
-0.0009546680399020995
-0.0010148768597580012
-0.0010663778438634597
-0.0011087628801420566
-0.0011415923558349451
-0.0011644293304055393
-0.0011768926360454228
-0.001178736216494521
-0.0011699646799895231
-0.0011509984255016514
-0.0011229095769478249
-0.0010877136055656548
-0.001049329728334688
-0.0010068068329490557
-0.0009812143290232253
0.001109873371182199
0.0027286379534998064
0.0039343509174565635
0.004831642092400496
0.0055033401070553635
0.006004250717349335
0.006374201675045634
0.0066429976569192615
0.006833326010347076
0.006962668872293473
0.0070446001232817345
0.007089688704183902
0.007106144694648396
0.007100294024592916
0.007076937508211409
0.007039630582760778
0.006990908203513622
0.006932471268486023
0.006865345634127496
0.0067900210950362725
0.006706575086651651
0.0066147840069280634
0.006514223701059274
0.006404359709816741
0.006284627242142392
0.0061545004604941006
0.006013550529011593
0.005861491910099717
0.005698216592563797
0.005523816243349425
0.005338592636332297
0.005143057132330655
0.004937920348989831
0.004724073486435367
0.004502563013420927
0.0042745605547623924
0.004041329848017632
0.0038041925647922157
0.003564494627371063
0.0033235744172262598
0.0030827339948215245
0.0028432141513323257
0.002606173816507426
0.0023726740715072922
0.0021436667752205213
0.0019199876160222288
0.0017023532520850056
0.0014913621017837262
0.001287498287677272
0.001091138217017335
0.000902559291412884
0.0007219502704398434
0.0005494228610666529
0.0003850241598610828
0.0002287496320427029
8.055636544734005e-5
-5.962361583863908e-5
-0.00019187015756087214
-0.00031626205857609497
-0.00043286458381783976
-0.0005417175745102133
-0.0006428243624577259
-0.0007361417639210279
-0.000821571533983503
-0.0008989538146737608
-0.0009680633238981271
-0.001028609327337489
-0.001080240839192336
-0.001122559047001924
-0.0011551396999051455
-0.0011775692038112939
-0.0011894995178501604
-0.001190728760871487
-0.0011813168908902153
-0.0011617489457851694
-0.0011331662779321882
-0.0010976461639582654
-0.0010591838184496165
-0.0010167304194420397
-0.000991448611868303
0.0010725846414473496
0.002665023630928196
0.003869364320666668
0.004778949907533087
0.005468623799051149
0.005988729718505712
0.00637663411940232
0.006660940937207582
0.00686391230168668
0.007003056331853027
0.007092213945606344
0.007142329641100541
0.007162016502905061
0.007157983616810514
0.007135369814000334
0.007098012313609996
0.007048669476747501
0.006989210535162687
0.00692078100259476
0.006843949577426092
0.006758840266407092
0.006665251956534906
0.006562766547639613
0.006450845972577631
0.006328917902685797
0.006196449641999727
0.006053009624936343
0.005898316030827474
0.005732272268190266
0.005554989420120899
0.005366796170037068
0.005168237117799851
0.004960060836624643
0.0047431993108066305
0.004518740638473208
0.004287896998380708
0.004051969878779651
0.0038123144587847205
0.0035703048334969705
0.0033273015068398105
0.0030846222667589573
0.0028435172348521324
0.002605148567601681
0.0023705749997080263
0.002140741174754102
0.0019164715125173529
0.001698468218198538
0.0014873129449607325
0.0012834715724728326
0.0010873015534609615
0.0008990612994346513
0.000718921117368237
0.0005469752632204779
0.00038325473865988096
0.00022774051815582517
8.037694966328889e-5
-5.8914880521801724e-5
-0.00019022399306260155
-0.000313636725154627
-0.0004292244560249559
-0.0005370320182364849
-0.0006370670070626769
-0.0007292902717686682
-0.0008136079797672666
-0.000889865796406886
-0.0009578459323831135
-0.0010172680946927573
-0.0010677957592065128
-0.0011090496951509541
-0.0011406313566357479
-0.001162159671411676
-0.0011733259819190203
-0.001173973540205877
-0.0011642102046041036
-0.0011445658532990416
-0.00111621390546431
-0.001081233754702898
-0.0010435905588421913
-0.0010021612879428181
-0.000977719463683824
0.0010171719902060375
0.0025495638108906423
0.003722919451563324
0.004619774482928123
0.005306995767453711
0.005830147599472829
0.006223619487318472
0.006514228371032035
0.006723238022251455
0.006867665910869059
0.006961176652242164
0.007014722421052788
0.007037021998060884
0.007034933075893532
0.007013752063022905
0.006977463157265413
0.006928951121294011
0.006870187288624888
0.006802395182887148
0.006726199948876264
0.006641764219715455
0.006548911894934769
0.006447240436166571
0.006336221672897605
0.006215290704760003
0.006083922283780945
0.005941694043448528
0.005788336091442213
0.0056237667727259116
0.005448114794902655