# vtk DataFile Version 3.0
jCFD simulation data
ASCII
DATASET UNSTRUCTURED_GRID
POINTS 8241 double
0.0 0.0 0.0
0.5 0.0 0.0
0.0 0.1 0.0
0.5 0.1 0.0
0.0025 0.0 0.0
0.005 0.0 0.0
0.0075 0.0 0.0
0.01 0.0 0.0
0.0125 0.0 0.0
0.015 0.0 0.0
0.0175 0.0 0.0
0.02 0.0 0.0
0.0225 0.0 0.0
0.025 0.0 0.0
0.0275 0.0 0.0
0.03 0.0 0.0
0.0325 0.0 0.0
0.035 0.0 0.0
0.0375 0.0 0.0
0.04 0.0 0.0
0.0425 0.0 0.0
0.045 0.0 0.0
0.0475 0.0 0.0
0.05 0.0 0.0
0.0525 0.0 0.0
0.055 0.0 0.0
0.0575 0.0 0.0
0.06 0.0 0.0
0.0625 0.0 0.0
0.065 0.0 0.0
0.0675 0.0 0.0
0.07 0.0 0.0
0.0725 0.0 0.0
0.075 0.0 0.0
0.0775 0.0 0.0
0.08 0.0 0.0
0.0825 0.0 0.0
0.085 0.0 0.0
0.08750000000000001 0.0 0.0
0.09 0.0 0.0
0.0925 0.0 0.0
0.095 0.0 0.0
0.0975 0.0 0.0
0.1 0.0 0.0
0.10250000000000001 0.0 0.0
0.105 0.0 0.0
0.1075 0.0 0.0
0.11 0.0 0.0
0.1125 0.0 0.0
0.115 0.0 0.0
0.11750000000000001 0.0 0.0
0.12 0.0 0.0
0.1225 0.0 0.0
0.125 0.0 0.0
0.1275 0.0 0.0
0.13 0.0 0.0
0.1325 0.0 0.0
0.135 0.0 0.0
0.1375 0.0 0.0
0.14 0.0 0.0
0.14250000000000002 0.0 0.0
0.145 0.0 0.0
0.1475 0.0 0.0
0.15 0.0 0.0
0.1525 0.0 0.0
0.155 0.0 0.0
0.1575 0.0 0.0
0.16 0.0 0.0
0.1625 0.0 0.0
0.165 0.0 0.0
0.1675 0.0 0.0
0.17 0.0 0.0
0.17250000000000001 0.0 0.0
0.17500000000000002 0.0 0.0
0.1775 0.0 0.0
0.18 0.0 0.0
0.1825 0.0 0.0
0.185 0.0 0.0
0.1875 0.0 0.0
0.19 0.0 0.0
0.1925 0.0 0.0
0.195 0.0 0.0
0.1975 0.0 0.0
0.2 0.0 0.0
0.2025 0.0 0.0
0.20500000000000002 0.0 0.0
0.20750000000000002 0.0 0.0
0.21 0.0 0.0
0.2125 0.0 0.0
0.215 0.0 0.0
0.2175 0.0 0.0
0.22 0.0 0.0
0.2225 0.0 0.0
0.225 0.0 0.0
0.2275 0.0 0.0
0.23 0.0 0.0
0.2325 0.0 0.0
0.23500000000000001 0.0 0.0
0.23750000000000002 0.0 0.0
0.24 0.0 0.0
0.2425 0.0 0.0
0.245 0.0 0.0
0.2475 0.0 0.0
0.25 0.0 0.0
0.2525 0.0 0.0
0.255 0.0 0.0
0.2575 0.0 0.0
0.26 0.0 0.0
0.2625 0.0 0.0
0.265 0.0 0.0
0.2675 0.0 0.0
0.27 0.0 0.0
0.2725 0.0 0.0
0.275 0.0 0.0
0.2775 0.0 0.0
0.28 0.0 0.0
0.28250000000000003 0.0 0.0
0.28500000000000003 0.0 0.0
0.28750000000000003 0.0 0.0
0.29 0.0 0.0
0.2925 0.0 0.0
0.295 0.0 0.0
0.2975 0.0 0.0
0.3 0.0 0.0
0.3025 0.0 0.0
0.305 0.0 0.0
0.3075 0.0 0.0
0.31 0.0 0.0
0.3125 0.0 0.0
0.315 0.0 0.0
0.3175 0.0 0.0
0.32 0.0 0.0
0.3225 0.0 0.0
0.325 0.0 0.0
0.3275 0.0 0.0
0.33 0.0 0.0
0.3325 0.0 0.0
0.335 0.0 0.0
0.3375 0.0 0.0
0.34 0.0 0.0
0.3425 0.0 0.0
0.34500000000000003 0.0 0.0
0.34750000000000003 0.0 0.0
0.35000000000000003 0.0 0.0
0.3525 0.0 0.0
0.355 0.0 0.0
0.3575 0.0 0.0
0.36 0.0 0.0
0.3625 0.0 0.0
0.365 0.0 0.0
0.3675 0.0 0.0
0.37 0.0 0.0
0.3725 0.0 0.0
0.375 0.0 0.0
0.3775 0.0 0.0
0.38 0.0 0.0
0.3825 0.0 0.0
0.385 0.0 0.0
0.3875 0.0 0.0
0.39 0.0 0.0
0.3925 0.0 0.0
0.395 0.0 0.0
0.3975 0.0 0.0
0.4 0.0 0.0
0.4025 0.0 0.0
0.405 0.0 0.0
0.40750000000000003 0.0 0.0
0.41000000000000003 0.0 0.0
0.41250000000000003 0.0 0.0
0.41500000000000004 0.0 0.0
0.4175 0.0 0.0
0.42 0.0 0.0
0.4225 0.0 0.0
0.425 0.0 0.0
0.4275 0.0 0.0
0.43 0.0 0.0
0.4325 0.0 0.0
0.435 0.0 0.0
0.4375 0.0 0.0
0.44 0.0 0.0
0.4425 0.0 0.0
0.445 0.0 0.0
0.4475 0.0 0.0
0.45 0.0 0.0
0.4525 0.0 0.0
0.455 0.0 0.0
0.4575 0.0 0.0
0.46 0.0 0.0
0.4625 0.0 0.0
0.465 0.0 0.0
0.4675 0.0 0.0
0.47000000000000003 0.0 0.0
0.47250000000000003 0.0 0.0
0.47500000000000003 0.0 0.0
0.47750000000000004 0.0 0.0
0.48 0.0 0.0
0.4825 0.0 0.0
0.485 0.0 0.0
0.4875 0.0 0.0
0.49 0.0 0.0
0.4925 0.0 0.0
0.495 0.0 0.0
0.4975 0.0 0.0
0.0025 0.1 0.0
0.005 0.1 0.0
0.0075 0.1 0.0
0.01 0.1 0.0
0.0125 0.1 0.0
0.015 0.1 0.0
0.0175 0.1 0.0
0.02 0.1 0.0
0.0225 0.1 0.0
0.025 0.1 0.0
0.0275 0.1 0.0
0.03 0.1 0.0
0.0325 0.1 0.0
0.035 0.1 0.0
0.0375 0.1 0.0
0.04 0.1 0.0
0.0425 0.1 0.0
0.045 0.1 0.0
0.0475 0.1 0.0
0.05 0.1 0.0
0.0525 0.1 0.0
0.055 0.1 0.0
0.0575 0.1 0.0
0.06 0.1 0.0
0.0625 0.1 0.0
0.065 0.1 0.0
0.0675 0.1 0.0
0.07 0.1 0.0
0.0725 0.1 0.0
0.075 0.1 0.0
0.0775 0.1 0.0
0.08 0.1 0.0
0.0825 0.1 0.0
0.085 0.1 0.0
0.08750000000000001 0.1 0.0
0.09 0.1 0.0
0.0925 0.1 0.0
0.095 0.1 0.0
0.0975 0.1 0.0
0.1 0.1 0.0
0.10250000000000001 0.1 0.0
0.105 0.1 0.0
0.1075 0.1 0.0
0.11 0.1 0.0
0.1125 0.1 0.0
0.115 0.1 0.0
0.11750000000000001 0.1 0.0
0.12 0.1 0.0
0.1225 0.1 0.0
0.125 0.1 0.0
0.1275 0.1 0.0
0.13 0.1 0.0
0.1325 0.1 0.0
0.135 0.1 0.0
0.1375 0.1 0.0
0.14 0.1 0.0
0.14250000000000002 0.1 0.0
0.145 0.1 0.0
0.1475 0.1 0.0
0.15 0.1 0.0
0.1525 0.1 0.0
0.155 0.1 0.0
0.1575 0.1 0.0
0.16 0.1 0.0
0.1625 0.1 0.0
0.165 0.1 0.0
0.1675 0.1 0.0
0.17 0.1 0.0
0.17250000000000001 0.1 0.0
0.17500000000000002 0.1 0.0
0.1775 0.1 0.0
0.18 0.1 0.0
0.1825 0.1 0.0
0.185 0.1 0.0
0.1875 0.1 0.0
0.19 0.1 0.0
0.1925 0.1 0.0
0.195 0.1 0.0
0.1975 0.1 0.0
0.2 0.1 0.0
0.2025 0.1 0.0
0.20500000000000002 0.1 0.0
0.20750000000000002 0.1 0.0
0.21 0.1 0.0
0.2125 0.1 0.0
0.215 0.1 0.0
0.2175 0.1 0.0
0.22 0.1 0.0
0.2225 0.1 0.0
0.225 0.1 0.0
0.2275 0.1 0.0
0.23 0.1 0.0
0.2325 0.1 0.0
0.23500000000000001 0.1 0.0
0.23750000000000002 0.1 0.0
0.24 0.1 0.0
0.2425 0.1 0.0
0.245 0.1 0.0
0.2475 0.1 0.0
0.25 0.1 0.0
0.2525 0.1 0.0
0.255 0.1 0.0
0.2575 0.1 0.0
0.26 0.1 0.0
0.2625 0.1 0.0
0.265 0.1 0.0
0.2675 0.1 0.0
0.27 0.1 0.0
0.2725 0.1 0.0
0.275 0.1 0.0
0.2775 0.1 0.0
0.28 0.1 0.0
0.28250000000000003 0.1 0.0
0.28500000000000003 0.1 0.0
0.28750000000000003 0.1 0.0
0.29 0.1 0.0
0.2925 0.1 0.0
0.295 0.1 0.0
0.2975 0.1 0.0
0.3 0.1 0.0
0.3025 0.1 0.0
0.305 0.1 0.0
0.3075 0.1 0.0
0.31 0.1 0.0
0.3125 0.1 0.0
0.315 0.1 0.0
0.3175 0.1 0.0
0.32 0.1 0.0
0.3225 0.1 0.0
0.325 0.1 0.0
0.3275 0.1 0.0
0.33 0.1 0.0
0.3325 0.1 0.0
0.335 0.1 0.0
0.3375 0.1 0.0
0.34 0.1 0.0
0.3425 0.1 0.0
0.34500000000000003 0.1 0.0
0.34750000000000003 0.1 0.0
0.35000000000000003 0.1 0.0
0.3525 0.1 0.0
0.355 0.1 0.0
0.3575 0.1 0.0
0.36 0.1 0.0
0.3625 0.1 0.0
0.365 0.1 0.0
0.3675 0.1 0.0
0.37 0.1 0.0
0.3725 0.1 0.0
0.375 0.1 0.0
0.3775 0.1 0.0
0.38 0.1 0.0
0.3825 0.1 0.0
0.385 0.1 0.0
0.3875 0.1 0.0
0.39 0.1 0.0
0.3925 0.1 0.0
0.395 0.1 0.0
0.3975 0.1 0.0
0.4 0.1 0.0
0.4025 0.1 0.0
0.405 0.1 0.0
0.40750000000000003 0.1 0.0
0.41000000000000003 0.1 0.0
0.41250000000000003 0.1 0.0
0.41500000000000004 0.1 0.0
0.4175 0.1 0.0
0.42 0.1 0.0
0.4225 0.1 0.0
0.425 0.1 0.0
0.4275 0.1 0.0
0.43 0.1 0.0
0.4325 0.1 0.0
0.435 0.1 0.0
0.4375 0.1 0.0
0.44 0.1 0.0
0.4425 0.1 0.0
0.445 0.1 0.0
0.4475 0.1 0.0
0.45 0.1 0.0
0.4525 0.1 0.0
0.455 0.1 0.0
0.4575 0.1 0.0
0.46 0.1 0.0
0.4625 0.1 0.0
0.465 0.1 0.0
0.4675 0.1 0.0
0.47000000000000003 0.1 0.0
0.47250000000000003 0.1 0.0
0.47500000000000003 0.1 0.0
0.47750000000000004 0.1 0.0
0.48 0.1 0.0
0.4825 0.1 0.0
0.485 0.1 0.0
0.4875 0.1 0.0
0.49 0.1 0.0
0.4925 0.1 0.0
0.495 0.1 0.0
0.4975 0.1 0.0
0.0 0.0025 0.0
0.0 0.005 0.0
0.0 0.0075 0.0
0.0 0.01 0.0
0.0 0.0125 0.0
0.0 0.015 0.0
0.0 0.0175 0.0
0.0 0.02 0.0
0.0 0.0225 0.0
0.0 0.025 0.0
0.0 0.0275 0.0
0.0 0.03 0.0
0.0 0.0325 0.0
0.0 0.035 0.0
0.0 0.0375 0.0
0.0 0.04 0.0
0.0 0.0425 0.0
0.0 0.045 0.0
0.0 0.0475 0.0
0.0 0.05 0.0
0.0 0.0525 0.0
0.0 0.055 0.0
0.0 0.0575 0.0
0.0 0.06 0.0
0.0 0.0625 0.0
0.0 0.065 0.0
0.0 0.0675 0.0
0.0 0.07 0.0
0.0 0.0725 0.0
0.0 0.075 0.0
0.0 0.0775 0.0
0.0 0.08 0.0
0.0 0.0825 0.0
0.0 0.085 0.0
0.0 0.08750000000000001 0.0
0.0 0.09 0.0
0.0 0.0925 0.0
0.0 0.095 0.0
0.0 0.0975 0.0
0.5 0.0025 0.0
0.5 0.005 0.0
0.5 0.0075 0.0
0.5 0.01 0.0
0.5 0.0125 0.0
0.5 0.015 0.0
0.5 0.0175 0.0
0.5 0.02 0.0
0.5 0.0225 0.0
0.5 0.025 0.0
0.5 0.0275 0.0
0.5 0.03 0.0
0.5 0.0325 0.0
0.5 0.035 0.0
0.5 0.0375 0.0
0.5 0.04 0.0
0.5 0.0425 0.0
0.5 0.045 0.0
0.5 0.0475 0.0
0.5 0.05 0.0
0.5 0.0525 0.0
0.5 0.055 0.0
0.5 0.0575 0.0
0.5 0.06 0.0
0.5 0.0625 0.0
0.5 0.065 0.0
0.5 0.0675 0.0
0.5 0.07 0.0
0.5 0.0725 0.0
0.5 0.075 0.0
0.5 0.0775 0.0
0.5 0.08 0.0
0.5 0.0825 0.0
0.5 0.085 0.0
0.5 0.08750000000000001 0.0
0.5 0.09 0.0
0.5 0.0925 0.0
0.5 0.095 0.0
0.5 0.0975 0.0
0.0025 0.0025 0.0
0.005 0.0025 0.0
0.0075 0.0025 0.0
0.01 0.0025 0.0
0.0125 0.0025 0.0
0.015 0.0025 0.0
0.0175 0.0025 0.0
0.02 0.0025 0.0
0.0225 0.0025 0.0
0.025 0.0025 0.0
0.0275 0.0025 0.0
0.03 0.0025 0.0
0.0325 0.0025 0.0
0.035 0.0025 0.0
0.0375 0.0025 0.0
0.04 0.0025 0.0
0.0425 0.0025 0.0
0.045 0.0025 0.0
0.0475 0.0025 0.0
0.05 0.0025 0.0
0.0525 0.0025 0.0
0.055 0.0025 0.0
0.0575 0.0025 0.0
0.06 0.0025 0.0
0.0625 0.0025 0.0
0.065 0.0025 0.0
0.0675 0.0025 0.0
0.07 0.0025 0.0
0.0725 0.0025 0.0
0.075 0.0025 0.0
0.0775 0.0025 0.0
0.08 0.0025 0.0
0.0825 0.0025 0.0
0.085 0.0025 0.0
0.08750000000000001 0.0025 0.0
0.09 0.0025 0.0
0.0925 0.0025 0.0
0.095 0.0025 0.0
0.0975 0.0025 0.0
0.1 0.0025 0.0
0.10250000000000001 0.0025 0.0
0.105 0.0025 0.0
0.1075 0.0025 0.0
0.11 0.0025 0.0
0.1125 0.0025 0.0
0.115 0.0025 0.0
0.11750000000000001 0.0025 0.0
0.12 0.0025 0.0
0.1225 0.0025 0.0
0.125 0.0025 0.0
0.1275 0.0025 0.0
0.13 0.0025 0.0
0.1325 0.0025 0.0
0.135 0.0025 0.0
0.1375 0.0025 0.0
0.14 0.0025 0.0
0.14250000000000002 0.0025 0.0
0.145 0.0025 0.0
0.1475 0.0025 0.0
0.15 0.0025 0.0
0.1525 0.0025 0.0
0.155 0.0025 0.0
0.1575 0.0025 0.0
0.16 0.0025 0.0
0.1625 0.0025 0.0
0.165 0.0025 0.0
0.1675 0.0025 0.0
0.17 0.0025 0.0
0.17250000000000001 0.0025 0.0
0.17500000000000002 0.0025 0.0
0.1775 0.0025 0.0
0.18 0.0025 0.0
0.1825 0.0025 0.0
0.185 0.0025 0.0
0.1875 0.0025 0.0
0.19 0.0025 0.0
0.1925 0.0025 0.0
0.195 0.0025 0.0
0.1975 0.0025 0.0
0.2 0.0025 0.0
0.2025 0.0025 0.0
0.20500000000000002 0.0025 0.0
0.20750000000000002 0.0025 0.0
0.21 0.0025 0.0
0.2125 0.0025 0.0
0.215 0.0025 0.0
0.2175 0.0025 0.0
0.22 0.0025 0.0
0.2225 0.0025 0.0
0.225 0.0025 0.0
0.2275 0.0025 0.0
0.23 0.0025 0.0
0.2325 0.0025 0.0
0.23500000000000001 0.0025 0.0
0.23750000000000002 0.0025 0.0
0.24 0.0025 0.0
0.2425 0.0025 0.0
0.245 0.0025 0.0
0.2475 0.0025 0.0
0.25 0.0025 0.0
0.2525 0.0025 0.0
0.255 0.0025 0.0
0.2575 0.0025 0.0
0.26 0.0025 0.0
0.2625 0.0025 0.0
0.265 0.0025 0.0
0.2675 0.0025 0.0
0.27 0.0025 0.0
0.2725 0.0025 0.0
0.275 0.0025 0.0
0.2775 0.0025 0.0
0.28 0.0025 0.0
0.28250000000000003 0.0025 0.0
0.28500000000000003 0.0025 0.0
0.28750000000000003 0.0025 0.0
0.29 0.0025 0.0
0.2925 0.0025 0.0
0.295 0.0025 0.0
0.2975 0.0025 0.0
0.3 0.0025 0.0
0.3025 0.0025 0.0
0.305 0.0025 0.0
0.3075 0.0025 0.0
0.31 0.0025 0.0
0.3125 0.0025 0.0
0.315 0.0025 0.0
0.3175 0.0025 0.0
0.32 0.0025 0.0
0.3225 0.0025 0.0
[...]
CELL_DATA 8000
SCALARS phi float 1
LOOKUP_TABLE CellColors
0.22777437387538832
0.22692228349577476
0.22608500139521676
0.22524902078176837
0.22446927368507036
0.2237471266005865
0.22306739331648404
0.2224156050601168
0.22178148579910062
0.22115815802041772
0.22054091475974882
0.21992638191326516
0.2193120357004693
0.21869592973738525
0.21807653372132357
0.21745263220960762
0.21682325173415518
0.2161876097684017
0.21554507605262502
0.21489514270513457
0.21423740226709792
0.213571530033278
0.2128972697411457
0.21221442116082578
0.21152283217468867
0.21082239142099637
0.21011302141498112
0.20939467319299737
0.20866732139743452
0.20793096042343115
0.2071856032502649
0.2064312730116624
0.20566800940884325
0.20489585847774283
0.20411487676411516
0.20332512659366023
0.20252667615320277
0.20171959992928262
0.20090397528318968
0.2000798830936087
0.19924740700420723
0.19840663119865384
0.1975576413656178
0.19670052409938413
0.1958353653241831
0.19496225136017464
0.19408126948082027
0.19319250678590066
0.19229605027795788
0.19139198707572233
0.19048040394418667
0.18956138671677572
0.18863501983863837
0.18770138636163805
0.18676056786946194
0.1858126443721645
0.1848576947754935
0.1838957972572202
0.18292702926906265
0.18195146770203835
0.1809691889790517
0.17998026868848463
0.1789847810021125
0.1779827983127998
0.1769743912840172
0.1759596291160136
0.1749385797996644
0.17391131037659896
0.17287788722024267
0.17183837618350112
0.1707928424836485
0.16974135043930427
0.16868396328347063
0.16762074305988645
0.1665517504707307
0.16547704472908562
0.16439668361382623
0.16331072377067782
0.1622192210686987
0.16112223078769872
0.16001980760090595
0.15891200549977552
0.1577988777736356
0.1566804770016842
0.15555685496986588
0.15442806250412933
0.15329414929324955
0.15215516380625982
0.15101115337659587
0.14986216444485953
0.1487082428818568
0.14754943426932415
0.14638578399643062
0.1452173370842861
0.14404413780449052
0.14286622932458168
0.14168365364015506
0.1404964518739885
0.13930466475736517
0.1381083329739882
0.13690749714985834
0.13570219752331167
0.1344924735389275
0.13327836363788859
0.13205990535776396
0.13083713563210522
0.1296100910681867
0.12837880805465762
0.12714332271613435
0.12590367082685816
0.12465988775591863
0.12341200842391
0.12216006722366494
0.12090409791735715
0.11964413358517306
0.11838020668736422
0.1171123492229872
0.11584059290051832
0.11456496923189594
0.11328550951241492
0.11200224470936664
0.11071520532163112
0.10942442128569486
0.1081299219877099
0.10683173638643834
0.10552989317264887
0.10422442084442268
0.10291534762067775
0.10160270123339499
0.10028650874718593
0.09896679656353258
0.09764359065045423
0.09631691686339482
0.09498680112734348
0.0936532693402411
0.09231634708123121
0.09097605936221993
0.08963243059596072
0.08828548474908476
0.08693524552939554
0.08558173650992187
0.08422498118193125
0.08286500293437958
0.08150182493288208
0.0801354699223902
0.07876596008746137
0.07739331711776423
0.07601756245283488
0.07463871748960926
0.07325680357807574
0.07187184186785436
0.07048385318796058
0.06909285799741108
0.06769887631006136
0.06630192760527187
0.06490203088784596
0.0634992049878315
0.06209346887466299
0.06068484154947906
0.059273341484850604
0.057858986249658045
0.05644179282762749
0.05502177821772498
0.053598959441048005
0.05217335288732701
0.050744973971889276
0.04931383752068786
0.04787995803315438
0.046443349293902814
0.045004023885486896
0.043561993210960805
0.04211726789536699
0.040669857799250565
0.03921977147386121
0.03776701582581189
0.03631159600257768
0.0348535148107328
0.03339277219178069
0.03192936554503687
0.030463289466674714
0.028994534065261358
0.027523084059826227
0.026048918578016014
0.024572009842041033
0.023092321498123614
0.021609806594335423
0.02012440547350167
0.01863604320209999
0.01714462470718014
0.01565002980425437
0.014152105633175972
0.012650654680236033
0.011145422946551277
0.009636079112943901
0.008122185608250641
0.006603167571852337
0.005078290323608995
0.0035467557427799317
0.0020083670142070887
0.0006264394340755328
0.22633599068460605
0.22596220290016095
0.22546014252836424
0.22485943800037245
0.22422416527879657
0.22358552109685126
0.22295445216728246
0.2223326036048377
0.22171825673250897
0.2211088582612895
0.22050192201040147
0.21989528610311082
0.2192871425402407
0.21867599990460812
0.21806063580076634
0.21744004920176782
0.21681342157194602
0.21618008607331568
0.21553949912427334
0.2148912190692716
0.214234890057881
0.2135702281692664
0.21289700964782798
0.2122150605333198
0.21152425035401556
0.2108244853699517
0.21011570238664476
0.2093978645879401
0.20867095793074644
0.20793498479346129
0.20718996548908283
0.20643592997386354
0.20567292253831482
0.20490099444157214
0.20412020560661145
0.2033306223700596
0.20253231603120972
0.20172536347513612
0.20090984455971173
0.20008584197925305
0.1992534412304242
0.19841272853733372
0.19756379058538992
0.19670671470636295
0.19584158806617655
0.1949684980752118
0.19408753274947885
0.19319878005646873
0.1923023278763083
0.19139826400697058
0.19048667568634484
0.18956764927140607
0.18864126970677075
0.18770762017313167
0.1867667823499617
0.1858188366203643
0.18486386220372727
0.18390193743704134
0.1829331400408301
0.1819575473383079
0.18097523616708167
0.17998628232589442
0.17899076001498374
0.17798874165300596
0.17698029795058684
0.17596549807426118
0.17494440997132157
0.1739171008035346
0.17288363719932245
0.17184408523423225
0.17079851028128912
0.16974697681209305
0.16868954819485207
0.16762628651388162
0.16655725238252062
0.16548250485240684
0.16440210160287788
0.16331609933342373
0.16222455405795858
0.16112752116664938
0.1600250553811842
0.15891721074170378
0.1578040406212465
0.15668559768714144
0.15556193377027827
0.15443309967681523
0.15329914501893377
0.1521601181593542
0.1510160663404661
0.14986703598392132
0.1487130730539376
0.14755422332267074
0.1463905323770158
0.14522204531638827
0.1440488063017909
0.14287085826415458
0.14168824299905514
0.1405010016046163
0.13930917497600293
0.13811280403773268
0.13691192958324602
0.1357065918565395
0.1344968301696931
0.1332826827984405
0.1320641871832937
0.13084138025798742
0.12961429868770144
0.12838297892753422
0.12714745716130493
0.12590776922062238
0.1246639505212132
0.12341603599124944
0.12216405997583099
0.12090805615568716
0.11964805754157258
0.11838409656783773
0.11711620524836798
0.11584441532648453
0.11456875835612325
0.11328926567695395
0.1120059682869453
0.11071889667400293
0.10942808071435653
0.10813354972527575
0.10683533265594557
0.10553345827822418
0.1042279552095968
0.10291885171716182
0.10160617543745978
0.1002899532441348
0.09897021140289586
0.09764697592803118
0.0963202728792241
0.09499012837441186
0.0936565683308648
0.09231961817086129
0.0909793027228836
0.08963564633369984
0.08828867302873428
0.08693840660370514
0.08558487068522268
0.08422808880622012
0.08286808440713671
0.0815048806617104
0.08013850021865768
0.07876896510270423
0.07739629690911785
0.07602051713920269
0.07464164736755531
0.07325970910030043
0.07187472351400521
0.07048671135692887
0.0690956929943942
0.06770168835901624
0.06630471684724076
0.06490479747505555
0.06350194927702273
0.06209619145930316
0.0606875429834765
0.05927602201068
0.05786164594288392
0.05644443201076159
0.055024397570463734
0.053601559664557354
0.05217593441325889
0.0507475371309555
0.04931638294825132
0.04788248666665493
0.04644586189108513
0.04500652091769658
0.04356447543969075
0.042119736681748406
0.040672314656833464
0.03922221770430569
0.03776945278914221
0.036314025431827414
0.034855938817971006
0.03339519335009461
0.03193178711368297
0.030465715346627533
0.028996968434105562
0.027525531636909312
0.026051385484351427
0.024574503412235424
0.023094850265726153
0.021612381690211735
0.020127040875755137
0.018638756015951382
0.017147437168997633
0.01565297046735832
0.014155211787443667
0.012653976677059503
0.011149028423820966
0.009640059337811443
0.00812665981891934
0.006608266536469199
0.005084042506463854
0.0035525425955728286
0.0020104941510921234
0.0006265660025693489
0.22513738844729064
0.22494990761101347
0.2246339888219995
0.22420914590591476
0.22371883596253184
0.22319175704658836
0.22264430841090702
0.22208498644003866
0.22151784787304715
0.22094462145194455
0.22036585582182464
0.21978151329198684
0.21919127914590383
0.21859472401077001
0.2179913893028115
0.21738083175019995
0.2167626464923293
0.2161364773762641
0.21550201837401364
0.21485901273061758
0.21420724992545329
0.21354656080109125
0.2128768139599938
0.2121979113975335
0.21150978496059591
0.21081239157279139
0.2101057108820549
0.20938974145250117
0.2086644991248853
0.2079300128742589
0.20718632289338582
0.2064334800035859
0.20567154348673847
0.20490057893410174
0.2041206578232867
0.20333185682390126
0.20253425691991658
0.20172794285362167
0.20091300139806445
0.20008952160292814
0.19925759437407295
0.19841731067261387
0.19756876130783319
0.1967120374486391
0.1958472298767865
0.19497442904853785
0.19409372561581245
0.19320521002701793
0.1923089724414449
0.19140510277532208
0.19049369006353
0.1895748220869191
0.18864858513626848
0.1877150636733109
0.1867743404595354
0.18582649683264205
0.18487161294798446
0.18390976814775628
0.1829410411976004
0.18196551033156655
0.18098325308930266
0.17999434583010232
0.17899886321260364
0.17799687801053107
0.17698846125192005
0.17597368248891174
0.17495261013587962
0.17392531183270948
0.17289185465057474
0.171852305073658
0.1708067288714863
0.16975519089031402
0.16869775476266458
0.16763448265343578
0.16656543515424663
0.16549067136759832
0.16441024917458297
0.16332422555870435
0.16223265679940657
0.161135598499512
0.16003310556105713
0.15892523218920868
0.15781203189916546
0.15669355746206465
0.1555698607646724
0.15444099262587152
0.15330700265242048
0.1521679392211175
0.1510238496482686
0.14987478052150155
0.14872077805368764
0.14756188826584007
0.14639815687174465
0.14522962890987076
0.14405634835275183
0.14287835796941545
0.14169569955643443
0.1405084144001393
0.13931654367745305
0.13812012854840236
0.13691920989785217
0.13571382791049122
0.13450402176121679
0.1332898296061491
0.1320712888451038
0.1308484364604342
0.1296213092335973
0.12838994376939122
0.12715437639064747
0.1259146430076594
0.12467077902483097
0.12342281928912437
0.12217079805903669
0.12091474898245376
0.11965470509607294
0.11839069887533554
0.1171227623536411
0.11585092728494319
0.1145752252649566
0.11329568771090699
0.11201234567887478
0.11072522963622915
0.10943436937707324
0.10813979417242571
0.10684153304264926
0.10553961491237976
0.10423406849128716
0.1029249219614301
0.1016122027383346
0.10029593753128768
0.09897615267584749
0.09765287446792593
0.09632612922868244
0.09499594308517545
0.09366234171164407
0.0923253502703634
0.09098499353843638
0.08964129601482346
0.08829428189443007
0.08694397502870102
0.08559039903430538
0.08423357747457477
0.08287353384113323
0.08151029124600369
0.08014387212201046
0.07877429829695955
0.07740159141533705
0.07602577328434096
0.07464686579417537
0.07326489052399386
0.07187986846744687
0.07049182013332776
0.06910076578289419
0.06770672540421337
0.06630971852132929
0.0649097642996039
0.06350688190593648
0.06210109054423044
0.060692409001117456
0.05928085531034485
0.057866447039557845
0.05644920174237264
0.05502913685100814
0.0536062692129676
0.05218061494300372
0.05075218968316523
0.04932100876489584
0.047887086805976246
0.04645043728284126
0.04501107292988669
0.04356900617389129
0.04212424855159543
0.040676810005866045
0.03922669908009451
0.0377739232291411
0.036318488364236706
0.03486039831906303
0.033399654644062346
0.0319362562651573
0.030470199015541963
0.029001474802443583
0.027530071056200787
0.02605597019708296
0.024579147722458478
0.023099571764931284
0.021617202528857238
0.020131988337574448
0.018643864378163507
0.017152750180852144
0.01565854325188755
0.014161117027693732
0.0126603122555186
0.011155926068819415
0.009647701721917566
0.008135305094656977
0.006618294388025961
0.005096056422040199
0.00356770199681086
0.0020319272312154684
0.0006374999637192139
0.22414474456786673
0.22402558885616378
0.2238029581245339
0.22348407496917455
0.22309606515203748
0.22266000547060658
0.2221903998851626
0.22169654481380696
0.2211841812875907
0.22065680266634694
0.2201165238994899
0.21956462065237015
0.2190018559479585
0.21842867741436325
0.2178453376425792
0.2172519711131559
0.2166486414867717
0.2160353717379744
0.21541216558782073
0.21477902011144637
0.2141359330309763
0.21348290683148907
0.2128199526848763
0.21214709163098133
0.211464355743201
0.2107717858796735
0.2100694335092638
0.20935735894854635
0.20863562800985766
0.20790431622230715
0.2071635015003979
0.2064132686964177
0.2056537054103872
0.20488490278717464
0.20410695469467052
0.20331995706437825
0.2025240078642686
0.2017192067378747
0.2009056540307223
0.20008345044285256
0.19925269714991822
0.1984134948753879
0.19756594270234418
0.1967101386707885
0.19584618046866265
0.19497416490330433
0.19409418792238434
0.19320634480522345
0.19231073028939746
0.1914074384093765
0.19049656166926826
0.18957819088045666
0.1886524152755224
0.18771932200112698
0.18677899610163168
0.18583152107672588
0.1848769792354862
0.18391545194317477
0.18294701982279626
0.18197176281430005
0.18098975998835565
0.1800010889944948
0.17900582551282196
0.1780040431923884
0.17699581397245956
0.17598120839881332
0.17496029586960452
0.1739331449466051
0.17289982361483636
0.1718603992800196
0.17081493854153856
0.16976350687519748
0.16870616832302154
0.16764298532375127
0.16657401875761862
0.16549932813974108
0.16441897187206933
0.16333300748096108
0.16224149175375954
0.16114448075075075
0.16004202976991133
0.15893419333704972
0.15782102521311359
0.1567025783595306
0.1555789048208858
0.1544500555585329
0.15331608033230548
0.15217702772721944
0.15103294536234155
0.1498838802139409
0.14872987888714057
0.1475709876731579
0.14640725235354352
0.14523871787372164
0.14406542809898434
0.1428874258262393
0.14170475306993208
0.14051745146367753
0.1393255625366403
0.1381291276930262
0.13692818790487596
0.13572278331183912
0.13451295298519403
0.13329873500556993
0.1320801667957405
0.13085728549078224
0.12963012812817354
0.1283987315862576
0.12716313237106036
0.12592336642406265
0.12467946906248989
0.1234314750355809
0.1221794185906618
0.12092333346010974
0.11966325278662233
0.11839920910070884
0.11713123444677127
0.11585936061612498
0.11458361930856299
0.1133040420599472
0.11202065996548333
0.11073350343275162
0.10944260219914716
0.10814798560899253
0.1068496828860141
0.10554772312580561
0.10424213499888459
0.10293294644250975
0.10162018464466965
0.10030387635423073
0.098984048239235
0.09766072696691067
0.09633393895819128
0.09500371010289162
0.09367006574857738
0.09233303094986339
0.09099263065535311
0.08964888960225136
0.08830183208278458
0.08695148193108916
0.08559786279242487
0.08424099832988796
0.08288091203569763
0.08151762679759951
0.08015116475234045
0.07878154769365903
0.07740879763508154
0.07603293687840619
0.0746539874858863
0.07327197076598936
0.07188690734134565
0.07049881762684918
0.06910772207029055
0.06771364087668204
0.06631659367680919
0.06491659968351617
0.06351367809366394
0.062107848070279824
0.06069912831263921
0.05928753688472537
0.05787309156912641
0.05645581014376726
0.055035710078787645
0.053612808189016745
0.052187120777356495
0.05075866376477418
0.04932745243359219
0.047893501263494
0.04645682421432865
0.04501743496230425
0.04357534632428004
0.04213056951945154
0.04068311458398264
0.03923299107391572
0.03778020748693
0.036324770314648085
0.03486668424679873
0.03340595224701746
0.031942574422011455
0.030476547870328736
0.029007866907870015
0.02753652156984679
0.026062496806856388
0.02458577226822163
0.02310632127626593
0.02162410975844351
0.02013909376932795
0.0186512184404003
0.017160416538680664
0.01566660369574942
0.014169677582053605
0.012669512373417933
0.011165953133560544
0.009658813528709833
0.008147867642668491
0.006632851226324809
0.005113466225097915
0.003589442127043971
0.0020607167631349066
0.0006521905504585582
0.22330289701461264
0.22321535739518525
0.22304381381319502
0.2227889847099188
0.22246834635593854
0.22209710003799082
0.22168700145737147
0.22124652386042237
0.22078154097981598
0.220296056110836
0.2197927924940059
0.21927361702358628
0.21873982739379055
0.21819234154915243
0.21763182320153984
0.21705876514496947
0.21647354208763175
0.215876447834652
0.21526772163215463
0.21464756470792304
0.21401615231752638
0.21337364179993565
0.21272017921913233
0.2120559021876766
0.21138094473672314
0.21069543775853333
0.20999951002009148
0.20929329117064374
0.20857690657954495
0.20785048421340888
0.2071141492381889
0.20636802753283107
0.205612242708462
0.2048469178352209
0.20407217562002322
0.2032881374285339
0.20249492382593004
0.2016926544791048
0.20088144802156485
0.20006142149200015
0.19923269005901253
0.1983953672386713
0.19754956422930606
0.1966953899089503
0.1958329515129695
0.1949623544839219
0.19408370266463734
0.19319709864113638
0.19230264370803135
0.19140043771820714
0.19049057857495605
0.18957316195375315
0.18864828131842706
0.1877160277267308
0.1867764899871323
0.18582975517204733
0.18487590890861427
0.18391503562056108
0.18294721882184414
0.18197254114293257
0.1809910839410146
0.18000292672562296
0.17900814686109476
0.1780068196940693
0.17699901883878283
0.17598481643121675
0.17496428340906434
0.17393748986870688
0.17290450531807308
0.17186539858510538
0.17082023744189395
0.16976908823077713
0.16871201567186847
0.1676490828568645
0.16658035137816576
0.16550588154453655
0.16442573262461574
0.16333996303393525
0.1622486303955048
0.1611517914951065
0.16004950222872993
0.15894181760563317
0.15782879178541137
0.15671047808004734
0.15558692886739917
0.15445819544768172
0.1533243279609272
0.1521853754631065
0.1510413861444566
0.14989240757289266
0.14873848682868931
0.14757967046491327
0.14641600433152988
0.14524753337710006
0.1440743015573498
0.14289635193136857
0.14171372692709003
0.14052646864781432
0.1393346190379408
0.13813821978271118
0.13693731197299466
0.13573193573403056
0.1345221300725442
0.13330793307064565
0.13208938231625986
0.13086651528730708
0.12963936944363133
0.12840798200365044
0.12717238961331476
0.12593262816761555
0.12468873288573432
0.12344073851467051
0.1221886794391253
0.1209325895885495
0.11967250225105573
0.11840845002075488
0.11714046499287846
0.11586857907032512
0.11459282410406338
0.11331323172316915
0.11202983300948441
0.11074265833654959
0.10945173753455069
0.10815710020450577
0.10685877583619076
0.10555679357930854
0.10425118188835843
0.10294196841914077
0.10162918031855975
0.10031284464865599
0.09899298853278128
0.09766963888113127
0.09634282198705539
0.09501256343017872
0.09367888839724275
0.09234182206835419
0.0910013896409167
0.08965761599311457
0.08831052542708599
0.08696014181873138
0.085606488955664
0.08424959057365318
0.0828894699811297
0.08152614973621819
0.08015965187277736
0.07878999853739765
0.07741721232109591
0.07604131581695346
0.07466233083933554
0.0732802782219932
0.07189517842895861
0.07050705216640529
0.06911592023621398
0.06772180293395577
0.06632471984678345
0.06492469025846216
0.06352173348859928
0.06211586865829587
0.060707114318441106
0.05929548857443743
0.057881009520798464
0.05646369526976689
0.05504356343109439
0.053620630820340166
0.05219491378569535
0.0507664283655101
0.04933518999748256
0.04790121357430291
0.04646451380316867
0.04502510490358692
0.043582999670799566
0.042138209360254336
0.040690744813530105
0.03924061677143803
0.03778783459372646
0.03633240559011963
0.034874335776585906
0.03341362982427465
0.031950289597761514
0.030484314186831726
0.029015700471806422
0.027544441426063805
0.02607052604050353
0.02459393970676703
0.023114661403905994
0.02163266379641725
0.02014791308829252
0.01866036648856032
0.017169973224744922
0.015676670906473407
0.01418038411610691
0.012681025598176235
0.011178493921905598
0.009672678459160682
0.008163463767998973
0.0066507501019237815
0.00513449201517083
0.0036147978948900786
0.0020921010243328785
0.0006681023227199233
0.222573344806854