# vtk DataFile Version 3.0
jCFD simulation data
ASCII
DATASET UNSTRUCTURED_GRID
POINTS 3321 double
0.0 0.0 0.0
1.0 0.0 0.0
0.0 0.5 0.0
1.0 0.5 0.0
0.0125 0.0 0.0
0.025 0.0 0.0
0.037500000000000006 0.0 0.0
0.05 0.0 0.0
0.0625 0.0 0.0
0.07500000000000001 0.0 0.0
0.08750000000000001 0.0 0.0
0.1 0.0 0.0
0.1125 0.0 0.0
0.125 0.0 0.0
0.1375 0.0 0.0
0.15000000000000002 0.0 0.0
0.1625 0.0 0.0
0.17500000000000002 0.0 0.0
0.1875 0.0 0.0
0.2 0.0 0.0
0.21250000000000002 0.0 0.0
0.225 0.0 0.0
0.23750000000000002 0.0 0.0
0.25 0.0 0.0
0.2625 0.0 0.0
0.275 0.0 0.0
0.28750000000000003 0.0 0.0
0.30000000000000004 0.0 0.0
0.3125 0.0 0.0
0.325 0.0 0.0
0.3375 0.0 0.0
0.35000000000000003 0.0 0.0
0.36250000000000004 0.0 0.0
0.375 0.0 0.0
0.3875 0.0 0.0
0.4 0.0 0.0
0.41250000000000003 0.0 0.0
0.42500000000000004 0.0 0.0
0.4375 0.0 0.0
0.45 0.0 0.0
0.4625 0.0 0.0
0.47500000000000003 0.0 0.0
0.48750000000000004 0.0 0.0
0.5 0.0 0.0
0.5125000000000001 0.0 0.0
0.525 0.0 0.0
0.5375 0.0 0.0
0.55 0.0 0.0
0.5625 0.0 0.0
0.5750000000000001 0.0 0.0
0.5875 0.0 0.0
0.6000000000000001 0.0 0.0
0.6125 0.0 0.0
0.625 0.0 0.0
0.6375000000000001 0.0 0.0
0.65 0.0 0.0
0.6625000000000001 0.0 0.0
0.675 0.0 0.0
0.6875 0.0 0.0
0.7000000000000001 0.0 0.0
0.7125 0.0 0.0
0.7250000000000001 0.0 0.0
0.7375 0.0 0.0
0.75 0.0 0.0
0.7625000000000001 0.0 0.0
0.775 0.0 0.0
0.7875000000000001 0.0 0.0
0.8 0.0 0.0
0.8125 0.0 0.0
0.8250000000000001 0.0 0.0
0.8375 0.0 0.0
0.8500000000000001 0.0 0.0
0.8625 0.0 0.0
0.875 0.0 0.0
0.8875000000000001 0.0 0.0
0.9 0.0 0.0
0.9125000000000001 0.0 0.0
0.925 0.0 0.0
0.9375 0.0 0.0
0.9500000000000001 0.0 0.0
0.9625 0.0 0.0
0.9750000000000001 0.0 0.0
0.9875 0.0 0.0
0.0125 0.5 0.0
0.025 0.5 0.0
0.037500000000000006 0.5 0.0
0.05 0.5 0.0
0.0625 0.5 0.0
0.07500000000000001 0.5 0.0
0.08750000000000001 0.5 0.0
0.1 0.5 0.0
0.1125 0.5 0.0
0.125 0.5 0.0
0.1375 0.5 0.0
0.15000000000000002 0.5 0.0
0.1625 0.5 0.0
0.17500000000000002 0.5 0.0
0.1875 0.5 0.0
0.2 0.5 0.0
0.21250000000000002 0.5 0.0
0.225 0.5 0.0
0.23750000000000002 0.5 0.0
0.25 0.5 0.0
0.2625 0.5 0.0
0.275 0.5 0.0
0.28750000000000003 0.5 0.0
0.30000000000000004 0.5 0.0
0.3125 0.5 0.0
0.325 0.5 0.0
0.3375 0.5 0.0
0.35000000000000003 0.5 0.0
0.36250000000000004 0.5 0.0
0.375 0.5 0.0
0.3875 0.5 0.0
0.4 0.5 0.0
0.41250000000000003 0.5 0.0
0.42500000000000004 0.5 0.0
0.4375 0.5 0.0
0.45 0.5 0.0
0.4625 0.5 0.0
0.47500000000000003 0.5 0.0
0.48750000000000004 0.5 0.0
0.5 0.5 0.0
0.5125000000000001 0.5 0.0
0.525 0.5 0.0
0.5375 0.5 0.0
0.55 0.5 0.0
0.5625 0.5 0.0
0.5750000000000001 0.5 0.0
0.5875 0.5 0.0
0.6000000000000001 0.5 0.0
0.6125 0.5 0.0
0.625 0.5 0.0
0.6375000000000001 0.5 0.0
0.65 0.5 0.0
0.6625000000000001 0.5 0.0
0.675 0.5 0.0
0.6875 0.5 0.0
0.7000000000000001 0.5 0.0
0.7125 0.5 0.0
0.7250000000000001 0.5 0.0
0.7375 0.5 0.0
0.75 0.5 0.0
0.7625000000000001 0.5 0.0
0.775 0.5 0.0
0.7875000000000001 0.5 0.0
0.8 0.5 0.0
0.8125 0.5 0.0
0.8250000000000001 0.5 0.0
0.8375 0.5 0.0
0.8500000000000001 0.5 0.0
0.8625 0.5 0.0
0.875 0.5 0.0
0.8875000000000001 0.5 0.0
0.9 0.5 0.0
0.9125000000000001 0.5 0.0
0.925 0.5 0.0
0.9375 0.5 0.0
0.9500000000000001 0.5 0.0
0.9625 0.5 0.0
0.9750000000000001 0.5 0.0
0.9875 0.5 0.0
0.0 0.0125 0.0
0.0 0.025 0.0
0.0 0.037500000000000006 0.0
0.0 0.05 0.0
0.0 0.0625 0.0
0.0 0.07500000000000001 0.0
0.0 0.08750000000000001 0.0
0.0 0.1 0.0
0.0 0.1125 0.0
0.0 0.125 0.0
0.0 0.1375 0.0
0.0 0.15000000000000002 0.0
0.0 0.1625 0.0
0.0 0.17500000000000002 0.0
0.0 0.1875 0.0
0.0 0.2 0.0
0.0 0.21250000000000002 0.0
0.0 0.225 0.0
0.0 0.23750000000000002 0.0
0.0 0.25 0.0
0.0 0.2625 0.0
0.0 0.275 0.0
0.0 0.28750000000000003 0.0
0.0 0.30000000000000004 0.0
0.0 0.3125 0.0
0.0 0.325 0.0
0.0 0.3375 0.0
0.0 0.35000000000000003 0.0
0.0 0.36250000000000004 0.0
0.0 0.375 0.0
0.0 0.3875 0.0
0.0 0.4 0.0
0.0 0.41250000000000003 0.0
0.0 0.42500000000000004 0.0
0.0 0.4375 0.0
0.0 0.45 0.0
0.0 0.4625 0.0
0.0 0.47500000000000003 0.0
0.0 0.48750000000000004 0.0
1.0 0.0125 0.0
1.0 0.025 0.0
1.0 0.037500000000000006 0.0
1.0 0.05 0.0
1.0 0.0625 0.0
1.0 0.07500000000000001 0.0
1.0 0.08750000000000001 0.0
1.0 0.1 0.0
1.0 0.1125 0.0
1.0 0.125 0.0
1.0 0.1375 0.0
1.0 0.15000000000000002 0.0
1.0 0.1625 0.0
1.0 0.17500000000000002 0.0
1.0 0.1875 0.0
1.0 0.2 0.0
1.0 0.21250000000000002 0.0
1.0 0.225 0.0
1.0 0.23750000000000002 0.0
1.0 0.25 0.0
1.0 0.2625 0.0
1.0 0.275 0.0
1.0 0.28750000000000003 0.0
1.0 0.30000000000000004 0.0
1.0 0.3125 0.0
1.0 0.325 0.0
1.0 0.3375 0.0
1.0 0.35000000000000003 0.0
1.0 0.36250000000000004 0.0
1.0 0.375 0.0
1.0 0.3875 0.0
1.0 0.4 0.0
1.0 0.41250000000000003 0.0
1.0 0.42500000000000004 0.0
1.0 0.4375 0.0
1.0 0.45 0.0
1.0 0.4625 0.0
1.0 0.47500000000000003 0.0
1.0 0.48750000000000004 0.0
0.0125 0.0125 0.0
0.025 0.0125 0.0
0.037500000000000006 0.0125 0.0
0.05 0.0125 0.0
0.0625 0.0125 0.0
0.07500000000000001 0.0125 0.0
0.08750000000000001 0.0125 0.0
0.1 0.0125 0.0
0.1125 0.0125 0.0
0.125 0.0125 0.0
0.1375 0.0125 0.0
0.15000000000000002 0.0125 0.0
0.1625 0.0125 0.0
0.17500000000000002 0.0125 0.0
0.1875 0.0125 0.0
0.2 0.0125 0.0
0.21250000000000002 0.0125 0.0
0.225 0.0125 0.0
0.23750000000000002 0.0125 0.0
0.25 0.0125 0.0
0.2625 0.0125 0.0
0.275 0.0125 0.0
0.28750000000000003 0.0125 0.0
0.30000000000000004 0.0125 0.0
0.3125 0.0125 0.0
0.325 0.0125 0.0
0.3375 0.0125 0.0
0.35000000000000003 0.0125 0.0
0.36250000000000004 0.0125 0.0
0.375 0.0125 0.0
0.3875 0.0125 0.0
0.4 0.0125 0.0
0.41250000000000003 0.0125 0.0
0.42500000000000004 0.0125 0.0
0.4375 0.0125 0.0
0.45 0.0125 0.0
0.4625 0.0125 0.0
0.47500000000000003 0.0125 0.0
0.48750000000000004 0.0125 0.0
0.5 0.0125 0.0
0.5125000000000001 0.0125 0.0
0.525 0.0125 0.0
0.5375 0.0125 0.0
0.55 0.0125 0.0
0.5625 0.0125 0.0
0.5750000000000001 0.0125 0.0
0.5875 0.0125 0.0
0.6000000000000001 0.0125 0.0
0.6125 0.0125 0.0
0.625 0.0125 0.0
0.6375000000000001 0.0125 0.0
0.65 0.0125 0.0
0.6625000000000001 0.0125 0.0
0.675 0.0125 0.0
0.6875 0.0125 0.0
0.7000000000000001 0.0125 0.0
0.7125 0.0125 0.0
0.7250000000000001 0.0125 0.0
0.7375 0.0125 0.0
0.75 0.0125 0.0
0.7625000000000001 0.0125 0.0
0.775 0.0125 0.0
0.7875000000000001 0.0125 0.0
0.8 0.0125 0.0
0.8125 0.0125 0.0
0.8250000000000001 0.0125 0.0
0.8375 0.0125 0.0
0.8500000000000001 0.0125 0.0
0.8625 0.0125 0.0
0.875 0.0125 0.0
0.8875000000000001 0.0125 0.0
0.9 0.0125 0.0
0.9125000000000001 0.0125 0.0
0.925 0.0125 0.0
0.9375 0.0125 0.0
0.9500000000000001 0.0125 0.0
0.9625 0.0125 0.0
0.9750000000000001 0.0125 0.0
0.9875 0.0125 0.0
0.0125 0.025 0.0
0.025 0.025 0.0
0.037500000000000006 0.025 0.0
0.05 0.025 0.0
0.0625 0.025 0.0
0.07500000000000001 0.025 0.0
0.08750000000000001 0.025 0.0
0.1 0.025 0.0
0.1125 0.025 0.0
0.125 0.025 0.0
0.1375 0.025 0.0
0.15000000000000002 0.025 0.0
0.1625 0.025 0.0
0.17500000000000002 0.025 0.0
0.1875 0.025 0.0
0.2 0.025 0.0
0.21250000000000002 0.025 0.0
0.225 0.025 0.0
0.23750000000000002 0.025 0.0
0.25 0.025 0.0
0.2625 0.025 0.0
0.275 0.025 0.0
0.28750000000000003 0.025 0.0
0.30000000000000004 0.025 0.0
0.3125 0.025 0.0
0.325 0.025 0.0
0.3375 0.025 0.0
0.35000000000000003 0.025 0.0
0.36250000000000004 0.025 0.0
0.375 0.025 0.0
0.3875 0.025 0.0
0.4 0.025 0.0
0.41250000000000003 0.025 0.0
0.42500000000000004 0.025 0.0
0.4375 0.025 0.0
0.45 0.025 0.0
0.4625 0.025 0.0
0.47500000000000003 0.025 0.0
0.48750000000000004 0.025 0.0
0.5 0.025 0.0
0.5125000000000001 0.025 0.0
0.525 0.025 0.0
0.5375 0.025 0.0
0.55 0.025 0.0
0.5625 0.025 0.0
0.5750000000000001 0.025 0.0
0.5875 0.025 0.0
0.6000000000000001 0.025 0.0
0.6125 0.025 0.0
0.625 0.025 0.0
0.6375000000000001 0.025 0.0
0.65 0.025 0.0
0.6625000000000001 0.025 0.0
0.675 0.025 0.0
0.6875 0.025 0.0
0.7000000000000001 0.025 0.0
0.7125 0.025 0.0
0.7250000000000001 0.025 0.0
0.7375 0.025 0.0
0.75 0.025 0.0
0.7625000000000001 0.025 0.0
0.775 0.025 0.0
0.7875000000000001 0.025 0.0
0.8 0.025 0.0
0.8125 0.025 0.0
0.8250000000000001 0.025 0.0
0.8375 0.025 0.0
0.8500000000000001 0.025 0.0
0.8625 0.025 0.0
0.875 0.025 0.0
0.8875000000000001 0.025 0.0
0.9 0.025 0.0
0.9125000000000001 0.025 0.0
0.925 0.025 0.0
0.9375 0.025 0.0
0.9500000000000001 0.025 0.0
0.9625 0.025 0.0
0.9750000000000001 0.025 0.0
0.9875 0.025 0.0
0.0125 0.037500000000000006 0.0
0.025 0.037500000000000006 0.0
0.037500000000000006 0.037500000000000006 0.0
0.05 0.037500000000000006 0.0
0.0625 0.037500000000000006 0.0
0.07500000000000001 0.037500000000000006 0.0
0.08750000000000001 0.037500000000000006 0.0
0.1 0.037500000000000006 0.0
0.1125 0.037500000000000006 0.0
0.125 0.037500000000000006 0.0
0.1375 0.037500000000000006 0.0
0.15000000000000002 0.037500000000000006 0.0
0.1625 0.037500000000000006 0.0
0.17500000000000002 0.037500000000000006 0.0
0.1875 0.037500000000000006 0.0
0.2 0.037500000000000006 0.0
0.21250000000000002 0.037500000000000006 0.0
0.225 0.037500000000000006 0.0
0.23750000000000002 0.037500000000000006 0.0
0.25 0.037500000000000006 0.0
0.2625 0.037500000000000006 0.0
0.275 0.037500000000000006 0.0
0.28750000000000003 0.037500000000000006 0.0
0.30000000000000004 0.037500000000000006 0.0
0.3125 0.037500000000000006 0.0
0.325 0.037500000000000006 0.0
0.3375 0.037500000000000006 0.0
0.35000000000000003 0.037500000000000006 0.0
0.36250000000000004 0.037500000000000006 0.0
0.375 0.037500000000000006 0.0
0.3875 0.037500000000000006 0.0
0.4 0.037500000000000006 0.0
0.41250000000000003 0.037500000000000006 0.0
0.42500000000000004 0.037500000000000006 0.0
0.4375 0.037500000000000006 0.0
0.45 0.037500000000000006 0.0
0.4625 0.037500000000000006 0.0
0.47500000000000003 0.037500000000000006 0.0
0.48750000000000004 0.037500000000000006 0.0
0.5 0.037500000000000006 0.0
0.5125000000000001 0.037500000000000006 0.0
0.525 0.037500000000000006 0.0
0.5375 0.037500000000000006 0.0
0.55 0.037500000000000006 0.0
0.5625 0.037500000000000006 0.0
0.5750000000000001 0.037500000000000006 0.0
0.5875 0.037500000000000006 0.0
0.6000000000000001 0.037500000000000006 0.0
0.6125 0.037500000000000006 0.0
0.625 0.037500000000000006 0.0
0.6375000000000001 0.037500000000000006 0.0
[...]
CELL_DATA 3200
SCALARS phi float 1
LOOKUP_TABLE CellColors
0.010471989251386597
0.005856822200811073
0.0025468845246230383
0.0010605627357236358
0.00037223837286592964
2.6357740744664675e-5
-0.00016303747182266903
-0.00027402748134264243
-0.0003418451314862736
-0.00038382190356678336
-0.0004092353621976129
-0.00042344333383415007
-0.00042975024279989804
-0.0004303125307671961
-0.00042660767773572433
-0.00041969159881372016
-0.0004103461542381834
-0.0003991679577888267
-0.0003866235650731297
-0.0003730848486398486
-0.00035885249790545965
-0.0003441720925376756
-0.0003292454044938608
-0.00031423861097579214
-0.00029928844818982747
-0.0002845069627888105
-0.000269985285372698
-0.00025579670474584775
-0.0002419992286926131
-0.0002286377556206533
-0.00021574594119666533
-0.00020334781959796539
-0.00019145922086893932
-0.00018008901479715786
-0.00016924020434183628
-0.00015891088682362645
-0.00014909509744320812
-0.00013978354767996145
-0.00013096426938208336
-0.00012262317416400522
-0.00011474453683035758
-0.00010731141080366775
-0.00010030598280108556
-9.370987347345733e-5
-8.750439009164205e-5
-8.167073687337355e-5
-7.619018798310512e-5
-7.104422776871268e-5
-6.621466227807476e-5
-6.168370563708351e-5
-5.743404439506589e-5
-5.3448882465723136e-5
-4.971196880232384e-5
-4.6207609418313956e-5
-4.2920664786727615e-5
-3.983653292594087e-5
-3.694111758756338e-5
-3.422077970971483e-5
-3.1662268518584134e-5
-2.9252625964648686e-5
-2.6979053961762003e-5
-2.4828727027248493e-5
-2.278852143544612e-5
-2.0844612155013223e-5
-1.8981853140864805e-5
-1.7182790574388187e-5
-1.5426031690468644e-5
-1.3683436525746512e-5
-1.1915061731704321e-5
-1.0059584024890736e-5
-8.015091621293982e-6
-5.597949013669282e-6
-2.4479327709325743e-6
2.209186562240896e-6
1.0210261506493648e-5
2.6392399528341018e-5
6.490471278625125e-5
0.00017147374974463232
0.000507655367695287
0.0003562304980885694
0.024852790184198777
0.017392166268288812
0.00914740978769437
0.004633762226644197
0.0021722401187876388
0.0007730166402654731
-6.360778520043964e-5
-0.0005864016560715862
-0.0009234094261569362
-0.0011439816182800405
-0.0012878167455574589
-0.001378892725426362
-0.0014324286996027248
-0.0014585274117351317
-0.0014641695648964803
-0.0014543530292487515
-0.0014327691233197134
-0.0014022179588533998
-0.0013648721574740703
-0.001322448180655565
-0.0012763216175994462
-0.0012276066305239365
-0.0011772119792021944
-0.0011258817448423278
-0.0010742256850776143
-0.0010227424609718695
-0.0009718378471031117
-0.0009218393358561074
-0.0008730080945694778
-0.0008255489238884222
-0.0007796186707702251
-0.0007353334132813295
-0.0006927746457286928
-0.0006519946332559153
-0.0006130210616775801
-0.0005758610822888589
-0.0005405048291171396
-0.0005069284743442272
-0.00047509687643373884
-0.0004449658678670778
-0.0004164842238524628
-0.00038959534868089054
-0.00036423871226185775
-0.00034035106618972034
-0.0003178674656406668
-0.00029672212065049
-0.00027684909793346696
-0.0002581828919719067
-0.0002406588820520936
-0.00022421368975041514
-0.00020878544948477022
-0.00019431400275632458
-0.0001807410247613147
-0.00016801009003605523
-0.000156066681489612
-0.00014485814460582074
-0.00013433358525463028
-0.00012444370507333393
-0.00011514056202010759
-0.00010637723432292402
-9.810735141142204e-5
-9.028443196334162e-5
-8.286093030294918e-5
-7.57868268638515e-5
-6.900748134226272e-5
-6.246025616163351e-5
-5.606902189064807e-5
-4.973488425242182e-5
-4.33199126774303e-5
-3.6617325038226645e-5
-2.9294229791920594e-5
-2.0775843974883758e-5
-9.997832266933548e-6
5.155629559665444e-6
2.9207182596947985e-5
7.255654155702938e-5
0.00016087233784445546
0.0003617423363524252
0.0008630042631489001
0.0006268999756509328
0.024018059617847372
0.021478614220772435
0.01397258541695893
0.008531674231837013
0.004912226527777584
0.002545308938830741
0.000983000537236461
-6.623684520746379e-5
-0.0007824564180469724
-0.0012764851082380092
-0.0016177699861978274
-0.0018510241459627655
-0.0020059265207119535
-0.0021027943103305337
-0.0021559547184650902
-0.0021757935973840763
-0.0021700321007232398
-0.002144539413771397
-0.0021038635867956477
-0.0020515868253898075
-0.0019905674573496607
-0.0019231099465917873
-0.0018510855710118415
-0.0017760209380310282
-0.001699164034201129
-0.0016215346821616503
-0.0015439638654506764
-0.0014671249801258618
-0.0013915591408298809
-0.0013176959846620787
-0.001245871006127875
-0.0011763401604287704
-0.001109292266592877
-0.001044859610390204
-0.0009831270468291964
-0.0009241398341254166
-0.0008679103845722957
-0.0008144240815511485
-0.0007636442867003575
-0.000715516640110995
-0.0006699727436157031
-0.0006269333045253439
-0.000586310806545769
-0.000548011767458052
-0.0005119386356582659
-0.0004779913715820742
-0.00044606875467890144
-0.00041606945177987206
-0.0003878928780867034
-0.0003614398781061017
-0.00033661324994483234
-0.0003133181327922954
-0.000291462273863637
-0.0002709561874327499
-0.0002517132147755916
-0.00023364948947574566
-0.00021668380739345357
-0.0002007373934792886
-0.00018573354800379262
-0.0001715971411756822
-0.0001582539038700357
-0.0001456294294358792
-0.00013364774753381217
-0.000122229246438859
-0.00011128756746692285
-0.00010072483641273529
-9.042413485040408e-5
-8.023726123362125e-5
-6.996428232402249e-5
-5.9318293692137806e-5
-4.786299594508574e-5
-3.489943594119266e-5
-1.9256979364844752e-5
1.0918626438096258e-6
2.9711071393196172e-5
7.2715690016848e-5
0.00013931523481819578
0.00023633906805350133
0.0003284027156593381
0.00021254930113343552
0.022663718132505707
0.02302426954992835
0.017042220613637696
0.011763975312960313
0.007674416422227485
0.004670173981931311
0.0025046029671748505
0.0009488551400167056
-0.00017144936283446804
-0.0009802663364219192
-0.0015637759284885594
-0.0019818849337745518
-0.0022766909385059076
-0.0024782631863886823
-0.0026084840431817077
-0.0026835864557405885
-0.002715838118626937
-0.0027146710355934332
-0.0026874496330464206
-0.0026400012131918118
-0.00257698812362525
-0.0025021736287092126
-0.002418615787030432
-0.002328810350465774
-0.002234798862101742
-0.002138251822500836
-0.002040533682470639
-0.0019427544871008385
-0.0018458116491284337
-0.0017504241421302943
-0.0016571608374331738
-0.0015664642292849413
-0.0014786704455038726
-0.0013940262331034105
-0.001312703440754277
-0.0012348114023282685
-0.001160407544111355
-0.0010895064733703133
-0.0010220877631871707
-0.0009581026108613422
-0.000897479520804705
-0.000840129141833297
-0.0007859483678570135
-0.0007348238007329843
-0.0006866346581773224
-0.0006412552002463568
-0.0005985567387554516
-0.0005584092856759887
-0.000520682889049946
-0.00048524869868463464
-0.0004519797977700949
-0.00042075183102636445
-0.00039144345464429
-0.0003639366280261937
-0.0003381167618596324
-0.0003138727312696784
-0.0002910967564894602
-0.0002696841442267355
-0.00024953287113124473
-0.0002305429762611118
-0.00021261570488819988
-0.000195652312797021
-0.00017955237876436357
-0.00016421140500632865
-0.0001495173300881262
-0.00013534536284168857
-0.00012155018294050155
-0.00010795389521656249
-9.432735959794202e-5
-8.036070800964426e-5
-6.561711613157237e-5
-4.9461785553276914e-5
-3.096011049440162e-5
-8.757924966512134e-6
1.8963022784196833e-5
5.409226385078464e-5
9.662142771933546e-5
0.0001381689576927023
0.00014636046429583165
8.617879300068266e-5
0.021062170383175996
0.02291514449413203
0.018401418639411686
0.013820383340142081
0.009827321394054185
0.006598121807151188
0.004083760843291362
0.0021623721525154
0.0007075763955866071
-0.000388063044688865
-0.0012089941600675746
-0.0018194460909030563
-0.002267731098125862
-0.002590206641550455
-0.0028144196005013412
-0.0029614514062553617
-0.003047619751847874
-0.003085702153086444
-0.0030858142851348715
-0.0030560433623471176
-0.0030029105835289293
-0.002931710104262136
-0.0028467622217925505
-0.002751605836931457
-0.0026491445594741783
-0.002541761688805776
-0.002431410653781599
-0.00231968726974348
-0.002207888655128379
-0.002097061466561399
-0.001988041905366837
-0.0018814892028999944
-0.001777913784774093
-0.0016777011216080944
-0.0015811320002012054
-0.0014883997997800953
-0.0013996252380514542
-0.0013148689648398448
-0.0012341423159733724
-0.0011574164859723473
-0.0010846303398872042
-0.001015697047926371
-0.0009505097034942549
-0.0008889460623349069
-0.0008308725220895832
-0.0007761474454422103
-0.0007246239159663271
-0.0006761520057116341
-0.0006305806208983146
-0.0005877589843352635
-0.0005475378044004494
-0.0005097701728080092
-0.0004743122261974578
-0.00044102360002027356
-0.0004097676958689433
-0.0003804117763078397
-0.0003528268963186844
-0.0003268876682255261
-0.00030247184363771504
-0.0002794596874020252
-0.0002577330895710694
-0.00023717434727765522
-0.00021766445783906485
-0.00019908079464396852
-0.0001812938517870109
-0.00016416265316782354
-0.0001475281924210459
-0.00013120424549920446
-0.00011496439662251693
-9.852444196384029e-5
-8.15203294637344e-5
-6.348551394666266e-5
-4.3843298344050555e-5
-2.1959471101749927e-5
2.6292440383083272e-6
2.9554026651564272e-5
5.606190558836325e-5
7.417768973423636e-5
6.808129659043152e-5
3.725337142797621e-5
0.019474148084031112
0.022032427562762896
0.01864795156083281
0.014856577540918443
0.011241669453579744
0.008082146062177498
0.005455344002586525
0.003335136400764089
0.0016546306315116585
0.00033875216881064347
-0.0006816186034971904
-0.0014650441555793365
-0.0020592251811918385
-0.0025023160604023846
-0.002824634548938799
-0.003050269373988485
-0.0031984279188264977
-0.0032845077316840565
-0.00332092629472431
-0.0033177573566757147
-0.0032832172169395
-0.003224037669454812
-0.0031457524030326384
-0.003052920591688728
-0.002949302263795952
-0.0028379975597070312
-0.0027215586909049663
-0.002602080077846248
-0.0024812730788888486
-0.002360527134840854
-0.002240960885547913
-0.002123465165313958
-0.002008739115472341
-0.0018973208413541854
-0.0017896134533075582
-0.0016859072378486112
-0.0015863985587359604
-0.001491205978363003
-0.0014003840017248724
-0.001313934782479042
-0.0012318180775600857
-0.001153959693232703
-0.0010802586323669192
-0.0010105931197716776
-0.0009448256619065915
-0.0008828072746080571
-0.0008243809944547009
-0.0007693847743342061
-0.0007176538489605602
-0.0006690226451752515
-0.0006233263004605472
-0.0005804018447363322
-0.0005400890898754918
-0.0005022312651948107
-0.0004666754270812022
-0.0004332726604911748
-0.0004018780955378231
-0.000372350741418764
-0.0003445531186942888
-0.00031835069379043484
-0.0002936110664970482
-0.00027020284171035727
-0.0002479941638995165
-0.00022685072527395324
-0.00020663318464598298
-0.00018719367419952354
-0.00016837144095919717
-0.0001499874153793467
-0.00013183792152860645
-0.00011368887800622449
-9.5273859438576e-5
-7.630440320273542e-5
-5.651117992110571e-5
-3.5753524363791545e-5
-1.4263973173293355e-5
6.880406123749944e-6
2.5018166617638503e-5
3.5200886675846584e-5
3.089577141593053e-5
1.6287399241223958e-5
0.017940918602279445
0.02078666085309714
0.018219441089044504
0.015136753183502348
0.011991543709908958
0.009066903020092137
0.0064987578977078846
0.004325370462173428
0.002531027676795813
0.0010755146221397287
-8.888031137205953e-5
-0.0010087591500772598
-0.0017259229080730488
-0.0022762730721333207
-0.0026899440247300844
-0.0029919345423956517
-0.0032028747950635338
-0.0033397646906656044
-0.003416621189316138
-0.0034450203066256676
-0.0034345396257981133
-0.003393117267972213
-0.0033273409619843566
-0.003242680447699575
-0.003143676617429354
-0.003034094667000645
-0.002917050125158213
-0.002795112980109525
-0.002670393874607163
-0.0025446162423637285
-0.002419176642377836
-0.002295196375837713
-0.0021735644809240894
-0.002054974668458386
-0.0019399566786905483
-0.0018289030115697556
-0.0017220917272950378
-0.0016197058944440396
-0.0015218501668839276
-0.0014285648977166528
-0.001339838134686151
-0.0012556157934829697
-0.0011758102636148491
-0.0011003076639502702
-0.0010289739368857154
-0.0009616599436108804
-0.0008982057008786875
-0.0008384438819029831
-0.000782202684724864
-0.0007293081593579388
-0.0006795860697447703
-0.0006328633571713236
-0.0005889692605669194
-0.0005477361420748644
-0.0005090000552055088
-0.0004726010611384179
-0.00043838335737553415
-0.0004061952267320171
-0.0003758887413885852
-0.00034731934694248934
-0.0003203451453806413
-0.00029482601469335334
-0.0002706225110614913
-0.0002475943106255474
-0.00022559852458164205
-0.000204487538811364
-0.00018410693885650352
-0.00016429349700532395
-0.0001448744622238688
-0.00012567007859234824
-0.00010650340469210565
-8.72249822817887e-5
-6.776534694106652e-5
-4.823481782490377e-5
-2.9092349856734558e-5
-1.1385670647121587e-5
3.016899821487515e-6
1.1489018534715286e-5
1.1609812036489842e-5
6.313539258216308e-6
0.01646033980097243
0.01936662846537418
0.017386878015232
0.014889966278302734
0.012209117100106527
0.009591151405627375
0.007186489906135796
0.005067733155851226
0.0032549659013930005
0.0017374333009800849
0.0004888279370911583
-0.0005231687979405713
-0.001331497765141856
-0.0019669974161010454
-0.00245724902247797
-0.0028262810494320287
-0.0030947048215686527
-0.003280039174557305
-0.0033970946765778075
-0.0034583533359026615
-0.0034743147520541165
-0.0034537987583611496
-0.003404205918659979
-0.003331737628515204
-0.003241581864016363
-0.0031380691303955982
-0.0030248032252726586
-0.0029047735875167157
-0.002780447708484836
-0.0026538515290356916
-0.002526636617233841
-0.002400137745049364
-0.002275422067051815
-0.002153331057548091
-0.0020345163602346755
-0.0019194704356075318
-0.0018085527528355332
-0.0017020121575641455
-0.0016000059536386614
-0.0015026161570399089
-0.0014098633147542681
-0.0013217182255067252
-0.00123811185550379
-0.0011589437008264775
-0.0010840888137013478
-0.0010134036832949124
-0.0009467311296979529
-0.0008839043550753283
-0.0008247502719257184
-0.0007690922119905085
-0.0007167521073299668
-0.0006675522173844376
-0.0006213164663970485
-0.0005778714544501398
-0.0005370472090037433
-0.0004986775802304542
-0.00046260052453603475
-0.0004286581577884823
-0.0003966965863751184
-0.0003665657355867595
-0.0003381186402437954
-0.0003112109456444346
-0.00028570012554048193
-0.0002614446028045411
-0.0002383027487072426
-0.00021613208518972123
-0.00019478892900764535
-0.0001741290118007278
-0.00015401025044506407
-0.00013429956441119654
-0.00011488690787771142
-9.571132561871987e-5
-7.68053763819078e-5
-5.836339219030004e-5
-4.083246317942405e-5
-2.500096018149262e-5
-1.2008660643571992e-5
-3.125416522727616e-6
8.925687150647951e-7
1.1165361303881495e-6
0.015023754684911024
0.017861879305390745
0.016310444981683724
0.014283783837079803
0.012022498715551055
0.009727438038759945
0.007540504478971076
0.005547101776382308
0.0037882672977414622
0.002274479762814572
0.0009973676342121117
-6.172412907613076e-5
-0.000926050404449765
-0.001619982368425767
-0.0021670383665113287
-0.002588885362745335
-0.0029049273294612346
-0.0031322288079616094
-0.003285616800733323
-0.0033778674428282304
-0.003419924123653632
-0.003421117232929939
-0.003389372004317449
-0.0033313968104938304
-0.0032528519943418725
-0.003158496395969096
-0.003052316073299392
-0.002937635741286604
-0.002817214592107547
-0.002693329709328219
-0.0025678477042888983
-0.002442285956770484
-0.002317866057693388
-0.0021955593676129667
-0.002076126247406795
-0.0019601497290126745
-0.001848064377898451
-0.0017401809971444315
-0.0016367077354242565
-0.0015377680879103638
-0.0014434162125382256
-0.001353649930657853
-0.0012684217306395801
-0.001187648053206725
-0.0011112170971183236
-0.0010389953561443675
-0.0009708330685935902
-0.0009065687326960845
-0.0008460328252335151
-0.0007890508371337241
-0.0007354457293917302
-0.0006850398931623957
-0.0006376566696777775
-0.0005931215082705827
-0.0005512630246156562
-0.0005119132561867317
-0.0004749082424698234
-0.0004400881972342239
-0.0004072974418524113
-0.0003763842665004146
-0.0003472007741374821
-0.00031960231133550067
-0.0002934471324046186
-0.00026859612040422523
-0.000244912402440433
-0.00022226151422783243
-0.0002005122496017913
-0.00017953878806895417
-0.00015922505231490196
-0.00013947266896876474
-0.0001202144150013161
-0.00010143532935130745
-8.320359159974732e-5
-6.570837167766137e-5
-4.929814617356109e-5
-3.4493573803782975e-5
-2.1929376038698054e-5
-1.2163249398400644e-5
-5.317120424725242e-6
-1.7667989465121006e-6
0.013623174291028061
0.016316739841956526
0.015084555370073124
0.013433340162435749
0.011536449665412911
0.009551936103951298
0.007603684935368966
0.005776877213630603
0.0041221230138027715
0.0026631502826283283
0.0014048062163089783
0.0003398339696800142
-0.0005460154961717615
-0.0012704241127477888
-0.0018521850023746388
-0.0023097816877516684
-0.0026605837864868464
-0.0029204446784112954
-0.0031035501333103923
-0.003222416498953161
-0.0032879727646407944
-0.003309685399394308
-0.003295700340863807
-0.003252987939905693
-0.0031874823884893906
-0.0031042113842402698
-0.0030074145942766265
-0.0029006478967294495
-0.002786879337783424
-0.00266857005643777
-0.00254774790131931
-0.002426070331711625
-0.002304879515693631
-0.002185250120382772
-0.0020680306076891696
-0.0019538788568161628
-0.0018432928189475444
-0.0017366368335498834
-0.0016341641650447626
-0.0015360362546164047
-0.0014423391223429803
-0.00135309730330512
-0.0012682856528312709
-0.0011878393157277374
-0.0011116621149898354
-0.0010396335807711615
-0.000971614816855201
-0.000907453369734621
-0.000846987244264302
-0.0007900481924470787
-0.0007364643786586644
-0.0006860625462118782
-0.0006386696636442649
-0.0005941142628557185
-0.0005522274171779923
-0.0005128434634868078
-0.0004758004607760045
-0.0004409406403429465
-0.0004081102932696634
-0.0003771597512922479
-0.0003479435749212545
-0.00032032029991034506
-0.0002941522145487645
-0.00026930549057164956
-0.0002456503922906529
-0.00022306199638148498
-0.0002014216834648604
-0.00018061985535412471
-0.0001605605146881839
-0.00014116849632252442
-0.00012240016142176243
-0.00010425803973195455
-8.68086383622694e-5
-7.020007295355696e-5
-5.467091297175467e-5
-4.053390129099534e-5
-2.811198296804468e-5
-1.7608882261962053e-5
-8.925967300981225e-6
-3.400407884360538e-6
0.01225220016303104
0.014753999669303212
0.013765676944041388
0.012416075553921086
0.010830774664392388
0.009132166719605357
0.007423886579374471
0.005784099158136556
0.004265375493831162
0.0028982614541208144
0.0016962229836981588
0.0006605374949317912
-0.00021555242764315107
-0.0009436271527305651
-0.0015377680538143663
-0.0020129698648048014
-0.0023841124124684577
-0.002665335529593482
-0.002869692540517078
-0.0030089893008275487
-0.0030937423858576635
-0.0031332105511440046
-0.003135468732249654
-0.003107503805610529
-0.0030553193609292747
-0.0029840422991695126
-0.002898024581190687
-0.002800938610645653
-0.0026958651424199794
-0.002585371875914878
-0.0024715841988398875
-0.0023562479222151047
-0.0022407839862749104
-0.0021263368535076213
-0.0020138164369271124
-0.0019039345097665874
-0.0017972361800100043
-0.0016941270058034436
-0.0015948962793464723
-0.0014997369585699888
-0.0014087626768036956
-0.001322022213702017
-0.0012395117665480804
-0.0011611853218372503
-0.0010869633906090178
-0.0010167403363173665
-0.0009503904946040985
-0.0008877732596843373
-0.000828737288153737
-0.000773123948715364
-0.0007207701289966533
-0.0006715105000188269
-0.0006251793201838879
-0.0005816118882097392
-0.00054064538934553
-0.0005021200628102659
-0.0004658795670071774
-0.0004317713749122478
-0.00039964720802707527
-0.0003693628295793807
-0.00034077826781709264
-0.00031375807583718015
-0.00028817118763197375
-0.0002638913148792384
-0.00024079746981163434
-0.00021877498551994693
-0.00019771720385984448
-0.00017752816058218463
-0.00015812660779791632
-0.0001394517009486926
-0.00012147048590658874
-0.00010418681073084995
-8.76496616853017e-5
-7.195909741512815e-5
-5.726124847785083e-5
-4.372583205767822e-5
-3.149564543257453e-5
-2.0606515508379134e-5
-1.0897679787432265e-5
-4.285844748404614e-6
0.010905768536688929
0.013185646101030055