<?xml version="1.0"?>
 <VTKFile type="UnstructuredGrid" version="1.0" byte_order="LittleEndian">
  <UnstructuredGrid>
   <Piece NumberOfPoints="8" NumberOfCells="5">
    <Points>
     <DataArray type="Float32" NumberOfComponents="3" format="ascii">
      10.0 10.0 0.0
      10.0 10.0 10.0
      10.0 0.0 0.0
      10.0 0.0 10.0
      0.0 10.0 0.0
      0.0 10.0 10.0
      0.0 0.0 0.0
      0.0 0.0 10.0
     </DataArray>
    </Points>
    <Cells>
     <DataArray type="Int64" Name="connectivity" format="ascii">
      6 0 4 5
      1 0 3 5
      6 5 7 3
      3 0 2 6
      6 0 5 3
     </DataArray>
     <DataArray type="Int64" Name="offsets" format="ascii">
      4
      8
      12
      16
      20
     </DataArray>
     <DataArray type="Int64" Name="faces" format="ascii">
      4
      3 6 4 0
      3 0 4 5
      3 5 4 6
      3 0 5 6
      4
      3 1 5 3
      3 1 0 5
      3 1 3 0
      3 0 3 5
      4
      3 5 7 3
      3 3 7 6
      3 6 7 5
      3 3 5 6
      4
      3 0 2 6
      3 6 2 3
      3 3 2 0
      3 0 3 6
      4
      3 0 3 5
      3 0 3 6
      3 0 5 6
      3 3 5 6
     </DataArray>
     <DataArray type="Int64" Name="faceoffsets" format="ascii">
     17
     34
     51
     68
     85
     </DataArray>
     <DataArray type="Int64" Name="types" format="ascii">
      42
      42
      42
      42
      42
     </DataArray>
    </Cells>
    <CellData>
     <DataArray type="Float32" Name="temperature" format="ascii">
      0.0
      125.0
      250.0
      375.0
      500.0
     </DataArray>
     <DataArray type="Float32" Name="pressure" format="ascii">
      0.0
      2500.0
      5000.0
      7500.0
      10000.0
     </DataArray>
    </CellData>
   </Piece>
  </UnstructuredGrid>
 </VTKFile>
