<?xml version="1.0"?>
 <VTKFile type="UnstructuredGrid" version="1.0" byte_order="LittleEndian">
  <UnstructuredGrid>
   <Piece NumberOfPoints="27" NumberOfCells="8">
    <Points>
     <DataArray type="Float32" NumberOfComponents="3" format="ascii">
      0.0 0.0 10.0
      0.0 0.0 0.0
      0.0 10.0 10.0
      0.0 10.0 0.0
      10.0 0.0 10.0
      10.0 0.0 0.0
      10.0 10.0 10.0
      10.0 10.0 0.0
      0.0 0.0 5.0
      0.0 5.0 10.0
      0.0 10.0 5.0
      0.0 5.0 0.0
      10.0 0.0 5.0
      10.0 5.0 10.0
      10.0 10.0 5.0
      10.0 5.0 0.0
      5.0 0.0 0.0
      5.0 0.0 10.0
      5.0 10.0 0.0
      5.0 10.0 10.0
      0.0 5.0 5.0
      10.0 5.0 5.0
      5.0 0.0 5.0
      5.0 10.0 5.0
      5.0 5.0 0.0
      5.0 5.0 10.0
      5.0 5.0 5.0
     </DataArray>
    </Points>
    <Cells>
     <DataArray type="Int64" Name="connectivity" format="ascii">
      0 8 20 9 17 22 26 25
      17 22 26 25 4 12 21 13
      9 20 10 2 25 26 23 19
      25 26 23 19 13 21 14 6
      8 1 11 20 22 16 24 26
      22 16 24 26 12 5 15 21
      20 11 3 10 26 24 18 23
      26 24 18 23 21 15 7 14
     </DataArray>
     <DataArray type="Int64" Name="offsets" format="ascii">
      8
      16
      24
      32
      40
      48
      56
      64
     </DataArray>
     <DataArray type="Int64" Name="faces" format="ascii">
      3
      4 17 22 25 26
      4 9 20 25 26
      4 8 20 22 26
      3
      4 17 22 25 26
      4 13 21 25 26
      4 12 21 22 26
      3
      4 9 20 25 26
      4 19 23 25 26
      4 10 20 23 26
      3
      4 13 21 25 26
      4 19 23 25 26
      4 14 21 23 26
      3
      4 8 20 22 26
      4 16 22 24 26
      4 11 20 24 26
      3
      4 12 21 22 26
      4 16 22 24 26
      4 15 21 24 26
      3
      4 10 20 23 26
      4 11 20 24 26
      4 18 23 24 26
      3
      4 14 21 23 26
      4 15 21 24 26
      4 18 23 24 26
     </DataArray>
     <DataArray type="Int64" Name="faceoffsets" format="ascii">
     13
     26
     39
     52
     65
     78
     91
     104
     </DataArray>
     <DataArray type="Int64" Name="types" format="ascii">
      42
      42
      42
      42
      42
      42
      42
      42
     </DataArray>
    </Cells>
    <CellData>
     <DataArray type="Float32" Name="temperature" format="ascii">
      0.0
      71.42857142857143
      142.85714285714286
      214.28571428571428
      285.7142857142857
      357.14285714285717
      428.57142857142856
      500.0
     </DataArray>
     <DataArray type="Float32" Name="pressure" format="ascii">
      0.0
      1428.5714285714284
      2857.142857142857
      4285.714285714285
      5714.285714285714
      7142.857142857143
      8571.42857142857
      10000.0
     </DataArray>
    </CellData>
   </Piece>
  </UnstructuredGrid>
 </VTKFile>
