<?xml version="1.0"?>
 <VTKFile type="UnstructuredGrid" version="1.0" byte_order="LittleEndian">
  <UnstructuredGrid>
   <Piece NumberOfPoints="263" NumberOfCells="797">
    <Points>
     <DataArray type="Float32" NumberOfComponents="3" format="ascii">
      10.0 10.0 0.0
      10.0 10.0 10.0
      10.0 0.0 0.0
      10.0 0.0 10.0
      0.0 10.0 0.0
      0.0 10.0 10.0
      0.0 0.0 0.0
      0.0 0.0 10.0
      0.0 1.6666666666666385 10.0
      0.0 3.3333333333332775 10.0
      0.0 4.999999999999907 10.0
      0.0 6.666666666666545 10.0
      0.0 8.333333333333266 10.0
      1.6666666666666385 10.0 10.0
      3.3333333333332775 10.0 10.0
      4.999999999999907 10.0 10.0
      6.666666666666545 10.0 10.0
      8.333333333333266 10.0 10.0
      10.0 1.6666666666666385 10.0
      10.0 3.3333333333332775 10.0
      10.0 4.999999999999907 10.0
      10.0 6.666666666666545 10.0
      10.0 8.333333333333266 10.0
      1.6666666666666385 0.0 10.0
      3.3333333333332775 0.0 10.0
      4.999999999999907 0.0 10.0
      6.666666666666545 0.0 10.0
      8.333333333333266 0.0 10.0
      0.0 1.6666666666666385 0.0
      0.0 3.3333333333332775 0.0
      0.0 4.999999999999907 0.0
      0.0 6.666666666666545 0.0
      0.0 8.333333333333266 0.0
      1.6666666666666385 10.0 0.0
      3.3333333333332775 10.0 0.0
      4.999999999999907 10.0 0.0
      6.666666666666545 10.0 0.0
      8.333333333333266 10.0 0.0
      10.0 1.6666666666666385 0.0
      10.0 3.3333333333332775 0.0
      10.0 4.999999999999907 0.0
      10.0 6.666666666666545 0.0
      10.0 8.333333333333266 0.0
      1.6666666666666385 0.0 0.0
      3.3333333333332775 0.0 0.0
      4.999999999999907 0.0 0.0
      6.666666666666545 0.0 0.0
      8.333333333333266 0.0 0.0
      10.0 10.0 1.6666666666666385
      10.0 10.0 3.3333333333332775
      10.0 10.0 4.999999999999907
      10.0 10.0 6.666666666666545
      10.0 10.0 8.333333333333266
      0.0 10.0 1.6666666666666385
      0.0 10.0 3.3333333333332775
      0.0 10.0 4.999999999999907
      0.0 10.0 6.666666666666545
      0.0 10.0 8.333333333333266
      10.0 0.0 1.6666666666666385
      10.0 0.0 3.3333333333332775
      10.0 0.0 4.999999999999907
      10.0 0.0 6.666666666666545
      10.0 0.0 8.333333333333266
      0.0 0.0 1.6666666666666385
      0.0 0.0 3.3333333333332775
      0.0 0.0 4.999999999999907
      0.0 0.0 6.666666666666545
      0.0 0.0 8.333333333333266
      1.3624356272241223 2.672291098046679 10.0
      1.567779203123163 4.139010421557707 10.0
      1.6777157557393354 5.820789774901935 10.0
      1.5443263255340756 7.620201294062436 10.0
      2.841436995367118 8.493405409587561 10.0
      4.387648038145277 8.381315328584623 10.0
      6.068010522210873 8.4641238374553 10.0
      7.7880667380573 8.595545585278948 10.0
      8.407900580569086 2.4669897548665793 10.0
      8.506041379281982 5.900387342639348 10.0
      2.2455980591074427 1.405261904201595 10.0
      5.512497393100874 1.3097695768947155 10.0
      6.87895490207351 1.8310520431667439 10.0
      8.403661355755181 4.264514340940558 10.0
      8.689227262549297 7.344987302090994 10.0
      3.9710200694346356 1.4776396600135593 10.0
      4.949023149677419 3.0386868864404275 10.0
      3.3076469232229733 4.648174372262624 10.0
      3.46595566063151 6.6638146622424514 10.0
      5.461162736980299 6.808168954024009 10.0
      7.170454133434825 7.070427099213039 10.0
      2.959036364037105 2.937843303875032 10.0
      6.861936355617105 5.425419008103468 10.0
      6.739013313186137 3.6588065680143633 10.0
      5.109175335248434 5.014724556779385 10.0
      1.513873763226553 2.2797184026980193 0.0
      1.6035876997127982 5.7192509847556705 0.0
      2.3433587851680815 8.525358655569466 0.0
      5.823111867295195 8.552471183473523 0.0
      8.43132539682968 2.4248392488207586 0.0
      8.334089348570682 4.2705550989588 0.0
      8.363469488248715 6.024682668071826 0.0
      8.548902326521294 7.774473053734327 0.0
      2.772174138039719 1.369811823095456 0.0
      4.2306736970141126 1.378699868327649 0.0
      5.66356682887882 1.1423786961223465 0.0
      6.975202734648679 1.679198506344359 0.0
      1.6290733972501232 4.018677403390906 0.0
      1.4621225171456282 7.23774228476765 0.0
      4.131134816242372 8.461423479606744 0.0
      7.297944517169662 8.687753504248759 0.0
      3.225480074336791 6.800995531347284 0.0
      3.20542417631902 4.864387417886651 0.0
      5.202633157201695 7.044448231748507 0.0
      6.769125768366258 3.4625015629232556 0.0
      3.377060154998112 2.992059044964781 0.0
      6.470748970697484 5.397030736458442 0.0
      6.936167471852112 7.17590653907259 0.0
      5.334478390694326 2.558947348595391 0.0
      4.610391642170493 5.667070201777524 0.0
      4.965686250001758 4.14390735852588 0.0
      2.672291098046679 10.0 1.3624356272241223
      4.139010421557707 10.0 1.567779203123163
      5.820789774901935 10.0 1.6777157557393354
      7.6202012940624355 10.0 1.5443263255340756
      8.49340540958756 10.0 2.8414369953671184
      8.381315328584622 10.0 4.387648038145278
      8.4641238374553 10.0 6.068010522210874
      8.59554558527895 10.0 7.7880667380573
      2.4669897548665793 10.0 8.407900580569086
      5.900387342639348 10.0 8.50604137928198
      1.405261904201595 10.0 2.2455980591074427
      1.3097695768947155 10.0 5.512497393100875
      1.8310520431667439 10.0 6.87895490207351
      4.264514340940558 10.0 8.403661355755183
      7.344987302090995 10.0 8.689227262549295
      1.4776396600135593 10.0 3.9710200694346356
      3.0386868864404275 10.0 4.949023149677418
      4.648174372262624 10.0 3.3076469232229733
      6.663814662242452 10.0 3.4659556606315105
      6.808168954024009 10.0 5.461162736980299
      7.070427099213041 10.0 7.170454133434825
      2.937843303875032 10.0 2.9590363640371047
      5.425419008103469 10.0 6.861936355617105
      3.6588065680143633 10.0 6.7390133131861365
      5.014724556779385 10.0 5.109175335248434
      2.2797184026980197 0.0 1.5138737632265526
      5.719250984755671 0.0 1.6035876997127985
      8.525358655569466 0.0 2.3433587851680815
      8.552471183473521 0.0 5.823111867295195
      2.4248392488207586 0.0 8.43132539682968
      4.2705550989588 0.0 8.334089348570682
      6.024682668071826 0.0 8.363469488248715
      7.774473053734327 0.0 8.548902326521294
      1.369811823095456 0.0 2.7721741380397185
      1.378699868327649 0.0 4.2306736970141126
      1.1423786961223463 0.0 5.663566828878819
      1.679198506344359 0.0 6.975202734648678
      4.018677403390907 0.0 1.629073397250123
      7.237742284767651 0.0 1.462122517145628
      8.461423479606744 0.0 4.131134816242373
      8.687753504248759 0.0 7.297944517169661
      6.800995531347285 0.0 3.2254800743367906
      4.864387417886651 0.0 3.2054241763190197
      7.044448231748506 0.0 5.202633157201695
      3.4625015629232556 0.0 6.769125768366256
      2.992059044964781 0.0 3.3770601549981114
      5.397030736458442 0.0 6.470748970697483
      7.17590653907259 0.0 6.936167471852112
      2.5589473485953915 0.0 5.334478390694325
      5.667070201777524 0.0 4.610391642170493
      4.14390735852588 0.0 4.965686250001757
      10.0 1.3624356272241223 2.672291098046679
      10.0 1.567779203123163 4.139010421557707
      10.0 1.6777157557393354 5.820789774901935
      10.0 1.5443263255340756 7.6202012940624355
      10.0 2.8414369953671184 8.49340540958756
      10.0 4.387648038145278 8.381315328584622
      10.0 6.068010522210874 8.4641238374553
      10.0 7.7880667380573 8.59554558527895
      10.0 8.407900580569086 2.4669897548665793
      10.0 8.50604137928198 5.900387342639348
      10.0 2.2455980591074427 1.405261904201595
      10.0 5.512497393100875 1.3097695768947155
      10.0 6.87895490207351 1.8310520431667439
      10.0 8.403661355755183 4.264514340940558
      10.0 8.689227262549295 7.344987302090995
      10.0 3.9710200694346356 1.4776396600135593
      10.0 4.949023149677418 3.0386868864404275
      10.0 3.3076469232229733 4.648174372262624
      10.0 3.4659556606315105 6.663814662242452
      10.0 5.461162736980299 6.808168954024009
      10.0 7.170454133434825 7.070427099213041
      10.0 2.9590363640371047 2.937843303875032
      10.0 6.861936355617105 5.425419008103469
      10.0 6.7390133131861365 3.6588065680143633
      10.0 5.109175335248434 5.014724556779385
      0.0 1.5138737632265526 2.2797184026980197
      0.0 1.6035876997127985 5.719250984755671
      0.0 2.3433587851680815 8.525358655569466
      0.0 5.823111867295195 8.552471183473521
      0.0 8.43132539682968 2.4248392488207586
      0.0 8.334089348570682 4.2705550989588
      0.0 8.363469488248715 6.024682668071826
      0.0 8.548902326521294 7.774473053734327
      0.0 2.7721741380397185 1.369811823095456
      0.0 4.2306736970141126 1.378699868327649
      0.0 5.663566828878819 1.1423786961223463
      0.0 6.975202734648678 1.679198506344359
      0.0 1.629073397250123 4.018677403390907
      0.0 1.462122517145628 7.237742284767651
      0.0 4.131134816242373 8.461423479606744
      0.0 7.297944517169661 8.687753504248759
      0.0 3.2254800743367906 6.800995531347285
      0.0 3.2054241763190197 4.864387417886651
      0.0 5.202633157201695 7.044448231748506
      0.0 6.769125768366256 3.4625015629232556
      0.0 3.3770601549981114 2.992059044964781
      0.0 6.470748970697483 5.397030736458442
      0.0 6.936167471852112 7.17590653907259
      0.0 5.334478390694325 2.5589473485953915
      0.0 4.610391642170493 5.667070201777524
      0.0 4.965686250001757 4.14390735852588
      3.8924512987759026 2.7613885251453683 6.78386154522622
      5.173665086175923 8.524297097227072 7.123574960850273
      2.2521899771958434 3.982946862704382 8.031840386178883
      1.8275058142404788 6.4651494106352985 7.491211746967113
      2.8834446693200775 8.260241272677385 5.1883389523996835
      7.462566384465532 8.10008710973349 7.785581581068013
      5.29658286746547 6.577164309045526 8.285343632337646
[...]
    <CellData>
     <DataArray type="Float32" Name="temperature" format="ascii">
      0.0
      0.628140703517588
      1.256281407035176
      1.8844221105527637
      2.512562814070352
      3.14070351758794
      3.7688442211055273
      4.396984924623116
      5.025125628140704
      5.653266331658291
      6.28140703517588
      6.909547738693468
      7.537688442211055
      8.165829145728644
      8.793969849246231
      9.422110552763819
      10.050251256281408
      10.678391959798994
      11.306532663316583
      11.93467336683417
      12.56281407035176
      13.190954773869347
      13.819095477386936
      14.447236180904524
      15.07537688442211
      15.703517587939697
      16.331658291457288
      16.959798994974875
      17.587939698492463
      18.21608040201005
      18.844221105527637
      19.47236180904523
      20.100502512562816
      20.728643216080403
      21.356783919597987
      21.984924623115578
      22.613065326633166
      23.241206030150753
      23.86934673366834
      24.497487437185928
      25.12562814070352
      25.753768844221106
      26.381909547738694
      27.01005025125628
      27.638190954773872
      28.26633165829146
      28.894472361809047
      29.52261306532663
      30.15075376884422
      30.77889447236181
      31.407035175879393
      32.03517587939699
      32.663316582914575
      33.29145728643216
      33.91959798994975
      34.54773869346733
      35.175879396984925
      35.80402010050251
      36.4321608040201
      37.06030150753769
      37.688442211055275
      38.31658291457286
      38.94472361809046
      39.57286432160804
      40.20100502512563
      40.82914572864322
      41.45728643216081
      42.085427135678394
      42.713567839195974
      43.34170854271357
      43.969849246231156
      44.597989949748744
      45.22613065326633
      45.85427135678392
      46.482412060301506
      47.1105527638191
      47.73869346733668
      48.366834170854275
      48.994974874371856
      49.62311557788945
      50.25125628140704
      50.87939698492462
      51.50753768844221
      52.13567839195979
      52.76381909547739
      53.391959798994975
      54.02010050251256
      54.64824120603015
      55.276381909547744
      55.904522613065325
      56.53266331658292
      57.1608040201005
      57.788944723618094
      58.41708542713568
      59.04522613065326
      59.67336683417086
      60.30150753768844
      60.92964824120603
      61.55778894472362
      62.185929648241206
      62.81407035175879
      63.44221105527638
      64.07035175879398
      64.69849246231156
      65.32663316582915
      65.95477386934672
      66.58291457286433
      67.21105527638191
      67.8391959798995
      68.46733668341709
      69.09547738693466
      69.72361809045226
      70.35175879396985
      70.97989949748744
      71.60804020100502
      72.23618090452261
      72.8643216080402
      73.49246231155779
      74.12060301507537
      74.74874371859298
      75.37688442211055
      76.00502512562814
      76.63316582914572
      77.26130653266331
      77.88944723618091
      78.5175879396985
      79.14572864321607
      79.77386934673366
      80.40201005025126
      81.03015075376885
      81.65829145728644
      82.28643216080401
      82.91457286432161
      83.5427135678392
      84.17085427135679
      84.79899497487438
      85.42713567839195
      86.05527638190955
      86.68341708542714
      87.31155778894473
      87.93969849246231
      88.5678391959799
      89.19597989949749
      89.82412060301507
      90.45226130653266
      91.08040201005026
      91.70854271356784
      92.33668341708542
      92.96482412060301
      93.5929648241206
      94.2211055276382
      94.84924623115577
      95.47738693467336
      96.10552763819095
      96.73366834170855
      97.36180904522614
      97.98994974874371
      98.6180904522613
      99.2462311557789
      99.87437185929649
      100.50251256281408
      101.13065326633165
      101.75879396984924
      102.38693467336684
      103.01507537688443
      103.64321608040201
      104.27135678391959
      104.89949748743719
      105.52763819095478
      106.15577889447236
      106.78391959798995
      107.41206030150754
      108.04020100502512
      108.66834170854271
      109.2964824120603
      109.92462311557789
      110.55276381909549
      111.18090452261306
      111.80904522613065
      112.43718592964824
      113.06532663316584
      113.69346733668343
      114.321608040201
      114.94974874371859
      115.57788944723619
      116.20603015075378
      116.83417085427136
      117.46231155778894
      118.09045226130652
      118.71859296482413
      119.34673366834171
      119.9748743718593
      120.60301507537687
      121.23115577889448
      121.85929648241206
      122.48743718592965
      123.11557788944724
      123.74371859296483
      124.37185929648241
      125.0
      125.62814070351757
      126.25628140703517
      126.88442211055276
      127.51256281407036
      128.14070351758795
      128.76884422110552
      129.39698492462313
      130.0251256281407
      130.6532663316583
      131.28140703517587
      131.90954773869345
      132.53768844221105
      133.16582914572865
      133.79396984924625
      134.42211055276383
      135.0502512562814
      135.678391959799
      136.30653266331657
      136.93467336683418
      137.56281407035175
      138.19095477386932
      138.81909547738695
      139.44723618090453
      140.07537688442213
      140.7035175879397
      141.33165829145727
      141.95979899497488
      142.58793969849245
      143.21608040201005
      143.84422110552762
      144.47236180904522
      145.10050251256283
      145.7286432160804
      146.356783919598
      146.98492462311557
      147.61306532663315
      148.24120603015075
      148.86934673366832
      149.49748743718595
      150.12562814070353
      150.7537688442211
      151.3819095477387
      152.01005025125627
      152.63819095477388
      153.26633165829145
      153.89447236180902
      154.52261306532662
      155.15075376884423
      155.77889447236183
      156.4070351758794
      157.035175879397
      157.66331658291458
      158.29145728643215
      158.91959798994975
      159.54773869346732
      160.17587939698493
      160.80402010050253
      161.4321608040201
      162.0603015075377
      162.68844221105527
      163.31658291457288
      163.94472361809045
      164.57286432160802
      165.20100502512562
      165.82914572864323
      166.45728643216083
      167.0854271356784
      167.71356783919597
      168.34170854271358
      168.96984924623115
      169.59798994974875
      170.22613065326632
      170.8542713567839
      171.48241206030153
      172.1105527638191
      172.7386934673367
      173.36683417085428
      173.99497487437185
      174.62311557788945
      175.25125628140702
      175.87939698492463
      176.5075376884422
      177.1356783919598
      177.7638190954774
      178.39195979899498
      179.02010050251258
      179.64824120603015
      180.27638190954772
      180.90452261306532
      181.5326633165829
      182.16080402010053
      182.7889447236181
      183.41708542713567
      184.04522613065328
      184.67336683417085
      185.30150753768845
      185.92964824120602
      186.5577889447236
      187.1859296482412
      187.8140703517588
      188.4422110552764
      189.07035175879398
      189.69849246231155
      190.32663316582915
      190.95477386934672
      191.58291457286433
      192.2110552763819
      192.83919597989947
      193.4673366834171
      194.09547738693468
      194.72361809045228
      195.35175879396985
      195.97989949748742
      196.60804020100502
      197.2361809045226
      197.8643216080402
      198.4924623115578
      199.12060301507537
      199.74874371859298
      200.37688442211055
      201.00502512562815
      201.63316582914572
      202.2613065326633
      202.8894472361809
      203.51758793969847
      204.1457286432161
      204.77386934673368
      205.40201005025125
      206.03015075376885
      206.65829145728642
      207.28643216080403
      207.9145728643216
      208.54271356783917
      209.17085427135677
      209.79899497487438
      210.42713567839198
      211.05527638190955
      211.68341708542712
      212.31155778894473
      212.9396984924623
      213.5678391959799
      214.19597989949747
      214.82412060301507
      215.45226130653268
      216.08040201005025
      216.70854271356785
      217.33668341708542
      217.964824120603
      218.5929648241206
      219.22110552763817
      219.84924623115577
      220.47738693467338
      221.10552763819098
      221.73366834170855
      222.36180904522612
      222.98994974874373
      223.6180904522613
      224.2462311557789
      224.87437185929647
      225.50251256281405
      226.13065326633168
      226.75879396984925
      227.38693467336685
      228.01507537688443
      228.643216080402
      229.2713567839196
      229.89949748743717
      230.52763819095478
      231.15577889447238
      231.78391959798995
      232.41206030150755
      233.04020100502512
      233.66834170854273
      234.2964824120603
      234.92462311557787
      235.55276381909547
      236.18090452261305
      236.80904522613068
      237.43718592964825
      238.06532663316582
      238.69346733668343
      239.321608040201
      239.9497487437186
      240.57788944723617
      241.20603015075375
      241.83417085427135
      242.46231155778895
      243.09045226130655
      243.71859296482413
      244.3467336683417
      244.9748743718593
      245.60301507537687
      246.23115577889448
      246.85929648241205
      247.48743718592965
      248.11557788944725
      248.74371859296483
      249.37185929648243
      250.0
      250.62814070351757
      251.25628140703515
      251.88442211055278
      252.51256281407035
      253.14070351758795
      253.76884422110552
      254.3969849246231
      255.02512562814073
      255.6532663316583
      256.2814070351759
      256.90954773869345
      257.53768844221105
      258.16582914572865
      258.79396984924625
      259.4221105527638
      260.0502512562814
      260.67839195979894
      261.3065326633166
      261.9346733668342
      262.56281407035175
      263.19095477386935
      263.8190954773869
      264.44723618090455
      265.0753768844221
      265.7035175879397
      266.3316582914573
      266.95979899497485
      267.5879396984925
      268.21608040201005
      268.84422110552765
      269.4723618090452
      270.1005025125628
      270.7286432160804
      271.356783919598
      271.9849246231156
      272.61306532663315
      273.24120603015075
      273.86934673366835
      274.49748743718595
      275.1256281407035
      275.7537688442211
      276.38190954773864
      277.0100502512563
      277.6381909547739
      278.26633165829145
      278.89447236180905
      279.5226130653266
      280.15075376884425
      280.7788944723618
      281.4070351758794
      282.03517587939695
      282.66331658291455
      283.2914572864322
      283.91959798994975
      284.54773869346735
      285.1758793969849
      285.8040201005025
      286.4321608040201
      287.0603015075377
      287.68844221105525
      288.31658291457285
      288.94472361809045
      289.57286432160805
      290.20100502512565
      290.8291457286432
      291.4572864321608
      292.08542713567834
      292.713567839196
      293.34170854271355
      293.96984924623115
      294.59798994974875
      295.2261306532663
      295.85427135678395
      296.4824120603015
      297.1105527638191
      297.73869346733665
      298.36683417085425
      298.9949748743719
      299.62311557788945
      300.25125628140705
      300.8793969849246
      301.5075376884422
      302.1356783919598
      302.7638190954774
      303.39195979899495
      304.02010050251255
      304.64824120603015
      305.27638190954775
      305.90452261306535
      306.5326633165829
      307.1608040201005
      307.78894472361804
      308.4170854271357
      309.04522613065325
      309.67336683417085
      310.30150753768845
      310.929648241206
      311.55778894472365
      312.1859296482412
      312.8140703517588
      313.44221105527635
      314.070351758794
      314.69849246231155
      315.32663316582915
      315.95477386934675
      316.5829145728643
      317.21105527638196
      317.8391959798995
      318.4673366834171
      319.09547738693465
      319.72361809045225
      320.35175879396985
      320.97989949748745
      321.60804020100505
      322.2361809045226
      322.8643216080402
      323.4924623115578
      324.1206030150754
      324.74874371859295
      325.37688442211055
      326.0050251256281
      326.63316582914575
      327.26130653266335
      327.8894472361809
      328.5175879396985
      329.14572864321605
      329.7738693467337
      330.40201005025125
      331.03015075376885
      331.65829145728645
      332.286432160804
      332.91457286432166
      333.5427135678392
      334.1708542713568
      334.79899497487435
      335.42713567839195
      336.05527638190955
      336.68341708542715
      337.31155778894475
      337.9396984924623
      338.5678391959799
      339.1959798994975
      339.8241206030151
      340.45226130653265
      341.08040201005025
      341.7085427135678
      342.33668341708545
      342.96482412060305
      343.5929648241206
      344.2211055276382
      344.84924623115575
      345.4773869346734
      346.10552763819095
      346.73366834170855
      347.3618090452261
      347.9899497487437
      348.61809045226136
      349.2462311557789
      349.8743718592965
      350.50251256281405
      351.13065326633165
      351.75879396984925
      352.38693467336685
      353.0150753768844
      353.643216080402
      354.2713567839196
      354.8994974874372
      355.5276381909548
      356.15577889447235
      356.78391959798995
      357.4120603015075
      358.04020100502515
      358.6683417085427
      359.2964824120603
      359.9246231155779
      360.55276381909545
      361.1809045226131
      361.80904522613065
      362.43718592964825
      363.0653266331658
      363.6934673366834
      364.32160804020106
      364.9497487437186
      365.5778894472362
      366.20603015075375
      366.83417085427135
      367.46231155778895
      368.09045226130655
      368.7185929648241
      369.3467336683417
      369.9748743718593
      370.6030150753769
      371.2311557788945
      371.85929648241205
      372.48743718592965
      373.1155778894472
      373.74371859296485
      374.3718592964824
      375.0
      375.6281407035176
      376.25628140703515
      376.8844221105528
      377.51256281407035
      378.14070351758795
      378.7688442211055
      379.3969849246231
      380.0251256281407
      380.6532663316583
      381.2814070351759
      381.90954773869345
      382.53768844221105
      383.16582914572865
      383.79396984924625
      384.4221105527638
      385.0502512562814
      385.67839195979894
      386.3065326633166
      386.9346733668342
      387.56281407035175
      388.19095477386935
      388.8190954773869
      389.44723618090455
      390.0753768844221
      390.7035175879397
      391.3316582914573
      391.95979899497485
      392.5879396984925
      393.21608040201005
      393.84422110552765
      394.4723618090452
      395.1005025125628
      395.7286432160804
      396.356783919598
      396.9849246231156
      397.61306532663315
      398.24120603015075
      398.86934673366835
      399.49748743718595
      400.1256281407035
      400.7537688442211
      401.38190954773864
      402.0100502512563
      402.6381909547739
      403.26633165829145
      403.89447236180905
      404.5226130653266
      405.15075376884425
      405.7788944723618
      406.4070351758794
      407.03517587939695
      407.66331658291455
      408.2914572864322
      408.91959798994975
      409.54773869346735
      410.1758793969849
      410.8040201005025
      411.4321608040201
      412.0603015075377
      412.68844221105525
      413.31658291457285
      413.94472361809045
      414.57286432160805
      415.20100502512565
      415.8291457286432
      416.4572864321608
      417.08542713567834
      417.713567839196
      418.34170854271355
      418.96984924623115
      419.59798994974875
      420.2261306532663
      420.85427135678395
      421.4824120603015
      422.1105527638191
      422.73869346733665
      423.36683417085425
      423.9949748743719
      424.62311557788945
      425.25125628140705
      425.8793969849246
      426.5075376884422
      427.1356783919598
      427.7638190954774
      428.39195979899495
      429.02010050251255
      429.64824120603015
      430.27638190954775
      430.90452261306535
      431.5326633165829
      432.1608040201005
      432.78894472361804
      433.4170854271357
      434.04522613065325
      434.67336683417085
      435.30150753768845
      435.929648241206
      436.55778894472365
      437.1859296482412
      437.8140703517588
      438.44221105527635
      439.070351758794
      439.69849246231155
      440.32663316582915
      440.95477386934675
      441.5829145728643
      442.21105527638196
      442.8391959798995
      443.4673366834171
      444.09547738693465
      444.72361809045225
      445.35175879396985
      445.97989949748745
      446.60804020100505
      447.2361809045226
      447.8643216080402
      448.4924623115578
      449.1206030150754
      449.74874371859295
      450.37688442211055
      451.0050251256281
      451.63316582914575
      452.26130653266335
      452.8894472361809
      453.5175879396985
      454.14572864321605
      454.7738693467337
      455.40201005025125
      456.03015075376885
      456.65829145728645
      457.286432160804
      457.91457286432166
      458.5427135678392
      459.1708542713568
      459.79899497487435
      460.42713567839195
      461.05527638190955
      461.68341708542715
      462.31155778894475
      462.9396984924623
      463.5678391959799
      464.1959798994975
      464.8241206030151
      465.45226130653265
      466.08040201005025
      466.7085427135678
      467.33668341708545
      467.96482412060305
      468.5929648241206
      469.2211055276382
      469.84924623115575
      470.4773869346734
      471.10552763819095
      471.73366834170855
      472.3618090452261
      472.9899497487437
      473.61809045226136
      474.2462311557789
      474.8743718592965
      475.50251256281405
      476.13065326633165
      476.75879396984925
      477.38693467336685
      478.0150753768844
      478.643216080402
      479.2713567839196
      479.8994974874372
      480.5276381909548
      481.15577889447235
      481.78391959798995
      482.4120603015075
      483.04020100502515
      483.6683417085427
      484.2964824120603
      484.9246231155779
      485.55276381909545
      486.1809045226131
      486.80904522613065
      487.43718592964825
      488.0653266331658
      488.6934673366834
      489.32160804020106
      489.9497487437186
      490.5778894472362
      491.20603015075375
      491.83417085427135
      492.46231155778895
      493.09045226130655
      493.7185929648241
      494.3467336683417
      494.9748743718593
      495.6030150753769
      496.2311557788945
      496.85929648241205
      497.48743718592965
      498.1155778894472
      498.74371859296485
      499.3718592964824
      500.0
     </DataArray>
     <DataArray type="Float32" Name="pressure" format="ascii">
      0.0
      12.56281407035176
      25.12562814070352
      37.688442211055275
      50.25125628140704
      62.814070351758794
      75.37688442211055
      87.93969849246231
      100.50251256281408
      113.06532663316584
      125.62814070351759
      138.19095477386935
      150.7537688442211
      163.31658291457288
      175.87939698492463