?xml version=1.0?
 <VTKFile type=PolyData version=0.1 byte_order=LittleEndian>
  <PolyData>   <Piece NumberOfPoints=4 NumberofVerts=0 NumberofLines=0 NumberofStrips=0 NumberofPolys=4>
   <Points>
    <DataArray type=Float32 NumberOfComponents=3 format=ascii>
     0.0 0.0 0.0 10.0 0.0 0.0 0.0 10.0 0.0 5.0 5.0 10.0
    </DataArray>
   </Points>
   <PointData Scalars=my_scalars>
    <DataArray type=Float32 Name=my_scalars format=ascii>
     1.0 2.0 3.0 4.0
    </DataArray>
   </PointData>
   <Polys>
    <DataArray type=Int32 Name=connectivity format=ascii>
     1 2 3 1 2 4 2 3 4 1 4 3
    </DataArray>
    <DataArray type=Int32 Name=offsets format=ascii>
     3 6 9 12
    </DataArray>
   </Polys>
   </Piece>
  </PolyData>
 </VTKFile>
