?xml version=1.0? <VTKFile type=PolyData version=0.1 byte_order=LittleEndian>  <PolyData>   <Piece NumberOfPoints=4 NumberofVerts=0 NumberofLines=6 NumberofStrips=0 NumberofPolys=4>   <Points>    <DataArray type=Float32 NumberOfComponents=3 format=ascii>     Node{Int64, Float64}[Node{Int64, Float64}([0.0, 0.0, 0.0], Int64[]), Node{Int64, Float64}([10.0, 0.0, 0.0], Int64[]), Node{Int64, Float64}([0.0, 10.0, 0.0], Int64[]), Node{Int64, Float64}([5.0, 5.0, 10.0], Int64[])]    </DataArray>   </Points>   <PointData Scalars=my_scalars>    <DataArray type=Float32 Name=my_scalars format=ascii>