# vtk DataFile Version 3.0
XCALibre.jl simulation data
ASCII
DATASET UNSTRUCTURED_GRID
POINTS 7441 double
0.0 0.0 0.0
0.2 0.0 0.0
0.2 0.1 0.0
0.0 0.1 0.0
1.0 0.1 0.0
1.0 0.0 0.0
0.2 -0.1 0.0
1.0 -0.1 0.0
0.005 0.0 0.0
0.01 0.0 0.0
0.015 0.0 0.0
0.02 0.0 0.0
0.025 0.0 0.0
0.03 0.0 0.0
0.035 0.0 0.0
0.04 0.0 0.0
0.045 0.0 0.0
0.05 0.0 0.0
0.055 0.0 0.0
0.06 0.0 0.0
0.065 0.0 0.0
0.07 0.0 0.0
0.075 0.0 0.0
0.08 0.0 0.0
0.085 0.0 0.0
0.09 0.0 0.0
0.095 0.0 0.0
0.1 0.0 0.0
0.105 0.0 0.0
0.11 0.0 0.0
0.115 0.0 0.0
0.12 0.0 0.0
0.125 0.0 0.0
0.13 0.0 0.0
0.135 0.0 0.0
0.14 0.0 0.0
0.145 0.0 0.0
0.15 0.0 0.0
0.155 0.0 0.0
0.16 0.0 0.0
0.165 0.0 0.0
0.17 0.0 0.0
0.17500000000000002 0.0 0.0
0.18 0.0 0.0
0.185 0.0 0.0
0.19 0.0 0.0
0.195 0.0 0.0
0.2 0.095 0.0
0.2 0.09 0.0
0.2 0.085 0.0
0.2 0.08 0.0
0.2 0.075 0.0
0.2 0.07 0.0
0.2 0.065 0.0
0.2 0.06 0.0
0.2 0.055 0.0
0.2 0.05 0.0
0.2 0.045 0.0
0.2 0.04 0.0
0.2 0.035 0.0
0.2 0.03 0.0
0.2 0.025 0.0
0.2 0.02 0.0
0.2 0.015 0.0
0.2 0.01 0.0
0.2 0.005 0.0
0.005 0.1 0.0
0.01 0.1 0.0
0.015 0.1 0.0
0.02 0.1 0.0
0.025 0.1 0.0
0.03 0.1 0.0
0.035 0.1 0.0
0.04 0.1 0.0
0.045 0.1 0.0
0.05 0.1 0.0
0.055 0.1 0.0
0.06 0.1 0.0
0.065 0.1 0.0
0.07 0.1 0.0
0.075 0.1 0.0
0.08 0.1 0.0
0.085 0.1 0.0
0.09 0.1 0.0
0.095 0.1 0.0
0.1 0.1 0.0
0.105 0.1 0.0
0.11 0.1 0.0
0.115 0.1 0.0
0.12 0.1 0.0
0.125 0.1 0.0
0.13 0.1 0.0
0.135 0.1 0.0
0.14 0.1 0.0
0.145 0.1 0.0
0.15 0.1 0.0
0.155 0.1 0.0
0.16 0.1 0.0
0.165 0.1 0.0
0.17 0.1 0.0
0.17500000000000002 0.1 0.0
0.18 0.1 0.0
0.185 0.1 0.0
0.19 0.1 0.0
0.195 0.1 0.0
0.0 0.005 0.0
0.0 0.01 0.0
0.0 0.015 0.0
0.0 0.02 0.0
0.0 0.025 0.0
0.0 0.03 0.0
0.0 0.035 0.0
0.0 0.04 0.0
0.0 0.045 0.0
0.0 0.05 0.0
0.0 0.055 0.0
0.0 0.06 0.0
0.0 0.065 0.0
0.0 0.07 0.0
0.0 0.075 0.0
0.0 0.08 0.0
0.0 0.085 0.0
0.0 0.09 0.0
0.0 0.095 0.0
1.0 0.095 0.0
1.0 0.09 0.0
1.0 0.085 0.0
1.0 0.08 0.0
1.0 0.075 0.0
1.0 0.07 0.0
1.0 0.065 0.0
1.0 0.06 0.0
1.0 0.055 0.0
1.0 0.05 0.0
1.0 0.045 0.0
1.0 0.04 0.0
1.0 0.035 0.0
1.0 0.03 0.0
1.0 0.025 0.0
1.0 0.02 0.0
1.0 0.015 0.0
1.0 0.01 0.0
1.0 0.005 0.0
0.20500000000000002 0.1 0.0
0.21 0.1 0.0
0.215 0.1 0.0
0.22 0.1 0.0
0.225 0.1 0.0
0.23 0.1 0.0
0.23500000000000001 0.1 0.0
0.24 0.1 0.0
0.245 0.1 0.0
0.25 0.1 0.0
0.255 0.1 0.0
0.26 0.1 0.0
0.265 0.1 0.0
0.27 0.1 0.0
0.275 0.1 0.0
0.28 0.1 0.0
0.28500000000000003 0.1 0.0
0.29 0.1 0.0
0.295 0.1 0.0
0.3 0.1 0.0
0.305 0.1 0.0
0.31 0.1 0.0
0.315 0.1 0.0
0.32 0.1 0.0
0.325 0.1 0.0
0.33 0.1 0.0
0.335 0.1 0.0
0.34 0.1 0.0
0.34500000000000003 0.1 0.0
0.35000000000000003 0.1 0.0
0.355 0.1 0.0
0.36 0.1 0.0
0.365 0.1 0.0
0.37 0.1 0.0
0.375 0.1 0.0
0.38 0.1 0.0
0.385 0.1 0.0
0.39 0.1 0.0
0.395 0.1 0.0
0.4 0.1 0.0
0.405 0.1 0.0
0.41000000000000003 0.1 0.0
0.41500000000000004 0.1 0.0
0.42 0.1 0.0
0.425 0.1 0.0
0.43 0.1 0.0
0.435 0.1 0.0
0.44 0.1 0.0
0.445 0.1 0.0
0.45 0.1 0.0
0.455 0.1 0.0
0.46 0.1 0.0
0.465 0.1 0.0
0.47000000000000003 0.1 0.0
0.47500000000000003 0.1 0.0
0.48 0.1 0.0
0.485 0.1 0.0
0.49 0.1 0.0
0.495 0.1 0.0
0.5 0.1 0.0
0.505 0.1 0.0
0.51 0.1 0.0
0.515 0.1 0.0
0.52 0.1 0.0
0.525 0.1 0.0
0.53 0.1 0.0
0.535 0.1 0.0
0.54 0.1 0.0
0.545 0.1 0.0
0.55 0.1 0.0
0.555 0.1 0.0
0.56 0.1 0.0
0.5650000000000001 0.1 0.0
0.5700000000000001 0.1 0.0
0.5750000000000001 0.1 0.0
0.58 0.1 0.0
0.585 0.1 0.0
0.59 0.1 0.0
0.595 0.1 0.0
0.6 0.1 0.0
0.605 0.1 0.0
0.61 0.1 0.0
0.615 0.1 0.0
0.62 0.1 0.0
0.625 0.1 0.0
0.63 0.1 0.0
0.635 0.1 0.0
0.64 0.1 0.0
0.645 0.1 0.0
0.65 0.1 0.0
0.655 0.1 0.0
0.66 0.1 0.0
0.665 0.1 0.0
0.67 0.1 0.0
0.675 0.1 0.0
0.68 0.1 0.0
0.685 0.1 0.0
0.6900000000000001 0.1 0.0
0.6950000000000001 0.1 0.0
0.7000000000000001 0.1 0.0
0.705 0.1 0.0
0.71 0.1 0.0
0.715 0.1 0.0
0.72 0.1 0.0
0.725 0.1 0.0
0.73 0.1 0.0
0.735 0.1 0.0
0.74 0.1 0.0
0.745 0.1 0.0
0.75 0.1 0.0
0.755 0.1 0.0
0.76 0.1 0.0
0.765 0.1 0.0
0.77 0.1 0.0
0.775 0.1 0.0
0.78 0.1 0.0
0.785 0.1 0.0
0.79 0.1 0.0
0.795 0.1 0.0
0.8 0.1 0.0
0.805 0.1 0.0
0.81 0.1 0.0
0.8150000000000001 0.1 0.0
0.8200000000000001 0.1 0.0
0.8250000000000001 0.1 0.0
0.8300000000000001 0.1 0.0
0.835 0.1 0.0
0.84 0.1 0.0
0.845 0.1 0.0
0.85 0.1 0.0
0.855 0.1 0.0
0.86 0.1 0.0
0.865 0.1 0.0
0.87 0.1 0.0
0.875 0.1 0.0
0.88 0.1 0.0
0.885 0.1 0.0
0.89 0.1 0.0
0.895 0.1 0.0
0.9 0.1 0.0
0.905 0.1 0.0
0.91 0.1 0.0
0.915 0.1 0.0
0.92 0.1 0.0
0.925 0.1 0.0
0.93 0.1 0.0
0.935 0.1 0.0
0.9400000000000001 0.1 0.0
0.9450000000000001 0.1 0.0
0.9500000000000001 0.1 0.0
0.9550000000000001 0.1 0.0
0.96 0.1 0.0
0.965 0.1 0.0
0.97 0.1 0.0
0.975 0.1 0.0
0.98 0.1 0.0
0.985 0.1 0.0
0.99 0.1 0.0
0.995 0.1 0.0
0.995 0.0 0.0
0.99 0.0 0.0
0.985 0.0 0.0
0.98 0.0 0.0
0.975 0.0 0.0
0.97 0.0 0.0
0.965 0.0 0.0
0.96 0.0 0.0
0.9550000000000001 0.0 0.0
0.9500000000000001 0.0 0.0
0.9450000000000001 0.0 0.0
0.9400000000000001 0.0 0.0
0.935 0.0 0.0
0.93 0.0 0.0
0.925 0.0 0.0
0.92 0.0 0.0
0.915 0.0 0.0
0.91 0.0 0.0
0.905 0.0 0.0
0.9 0.0 0.0
0.895 0.0 0.0
0.89 0.0 0.0
0.885 0.0 0.0
0.88 0.0 0.0
0.875 0.0 0.0
0.87 0.0 0.0
0.865 0.0 0.0
0.86 0.0 0.0
0.855 0.0 0.0
0.85 0.0 0.0
0.845 0.0 0.0
0.84 0.0 0.0
0.835 0.0 0.0
0.8300000000000001 0.0 0.0
0.8250000000000001 0.0 0.0
0.8200000000000001 0.0 0.0
0.8150000000000001 0.0 0.0
0.81 0.0 0.0
0.805 0.0 0.0
0.8 0.0 0.0
0.795 0.0 0.0
0.79 0.0 0.0
0.785 0.0 0.0
0.78 0.0 0.0
0.775 0.0 0.0
0.77 0.0 0.0
0.765 0.0 0.0
0.76 0.0 0.0
0.755 0.0 0.0
0.75 0.0 0.0
0.745 0.0 0.0
0.74 0.0 0.0
0.735 0.0 0.0
0.73 0.0 0.0
0.725 0.0 0.0
0.72 0.0 0.0
0.715 0.0 0.0
0.71 0.0 0.0
0.705 0.0 0.0
0.7000000000000001 0.0 0.0
0.6950000000000001 0.0 0.0
0.6900000000000001 0.0 0.0
0.685 0.0 0.0
0.68 0.0 0.0
0.675 0.0 0.0
0.67 0.0 0.0
0.665 0.0 0.0
0.66 0.0 0.0
0.655 0.0 0.0
0.65 0.0 0.0
0.645 0.0 0.0
0.64 0.0 0.0
0.635 0.0 0.0
0.63 0.0 0.0
0.625 0.0 0.0
0.62 0.0 0.0
0.615 0.0 0.0
0.61 0.0 0.0
0.605 0.0 0.0
0.6 0.0 0.0
0.595 0.0 0.0
0.59 0.0 0.0
0.585 0.0 0.0
0.58 0.0 0.0
0.5750000000000001 0.0 0.0
0.5700000000000001 0.0 0.0
0.5650000000000001 0.0 0.0
0.56 0.0 0.0
0.555 0.0 0.0
0.55 0.0 0.0
0.545 0.0 0.0
0.54 0.0 0.0
0.535 0.0 0.0
0.53 0.0 0.0
0.525 0.0 0.0
0.52 0.0 0.0
0.515 0.0 0.0
0.51 0.0 0.0
0.505 0.0 0.0
0.5 0.0 0.0
0.495 0.0 0.0
0.49 0.0 0.0
0.485 0.0 0.0
0.48 0.0 0.0
0.47500000000000003 0.0 0.0
0.47000000000000003 0.0 0.0
0.465 0.0 0.0
0.46 0.0 0.0
0.455 0.0 0.0
0.45 0.0 0.0
0.445 0.0 0.0
0.44 0.0 0.0
0.435 0.0 0.0
0.43 0.0 0.0
0.425 0.0 0.0
0.42 0.0 0.0
0.41500000000000004 0.0 0.0
0.41000000000000003 0.0 0.0
0.405 0.0 0.0
0.4 0.0 0.0
0.395 0.0 0.0
0.39 0.0 0.0
0.385 0.0 0.0
0.38 0.0 0.0
0.375 0.0 0.0
0.37 0.0 0.0
0.365 0.0 0.0
0.36 0.0 0.0
0.355 0.0 0.0
0.35000000000000003 0.0 0.0
0.34500000000000003 0.0 0.0
0.34 0.0 0.0
0.335 0.0 0.0
0.33 0.0 0.0
0.325 0.0 0.0
0.32 0.0 0.0
0.315 0.0 0.0
0.31 0.0 0.0
0.305 0.0 0.0
0.3 0.0 0.0
0.295 0.0 0.0
0.29 0.0 0.0
0.28500000000000003 0.0 0.0
0.28 0.0 0.0
0.275 0.0 0.0
0.27 0.0 0.0
0.265 0.0 0.0
0.26 0.0 0.0
0.255 0.0 0.0
0.25 0.0 0.0
0.245 0.0 0.0
0.24 0.0 0.0
0.23500000000000001 0.0 0.0
0.23 0.0 0.0
0.225 0.0 0.0
0.22 0.0 0.0
0.215 0.0 0.0
0.21 0.0 0.0
0.20500000000000002 0.0 0.0
0.2 -0.005 0.0
0.2 -0.01 0.0
0.2 -0.015 0.0
0.2 -0.02 0.0
0.2 -0.025 0.0
0.2 -0.03 0.0
0.2 -0.035 0.0
0.2 -0.04 0.0
0.2 -0.045 0.0
0.2 -0.05 0.0
0.2 -0.055 0.0
0.2 -0.06 0.0
0.2 -0.065 0.0
0.2 -0.07 0.0
0.2 -0.075 0.0
0.2 -0.08 0.0
0.2 -0.085 0.0
0.2 -0.09 0.0
0.2 -0.095 0.0
0.20500000000000002 -0.1 0.0
0.21 -0.1 0.0
0.215 -0.1 0.0
0.22 -0.1 0.0
0.225 -0.1 0.0
0.23 -0.1 0.0
0.23500000000000001 -0.1 0.0
0.24 -0.1 0.0
0.245 -0.1 0.0
0.25 -0.1 0.0
0.255 -0.1 0.0
0.26 -0.1 0.0
0.265 -0.1 0.0
0.27 -0.1 0.0
0.275 -0.1 0.0
0.28 -0.1 0.0
0.28500000000000003 -0.1 0.0
0.29 -0.1 0.0
0.295 -0.1 0.0
0.3 -0.1 0.0
0.305 -0.1 0.0
0.31 -0.1 0.0
0.315 -0.1 0.0
0.32 -0.1 0.0
0.325 -0.1 0.0
0.33 -0.1 0.0
0.335 -0.1 0.0
0.34 -0.1 0.0
0.34500000000000003 -0.1 0.0
0.35000000000000003 -0.1 0.0
0.355 -0.1 0.0
0.36 -0.1 0.0
0.365 -0.1 0.0
0.37 -0.1 0.0
0.375 -0.1 0.0
0.38 -0.1 0.0
0.385 -0.1 0.0
0.39 -0.1 0.0
0.395 -0.1 0.0
0.4 -0.1 0.0
0.405 -0.1 0.0
0.41000000000000003 -0.1 0.0
0.41500000000000004 -0.1 0.0
0.42 -0.1 0.0
0.425 -0.1 0.0
0.43 -0.1 0.0
0.435 -0.1 0.0
0.44 -0.1 0.0
0.445 -0.1 0.0
0.45 -0.1 0.0
0.455 -0.1 0.0
0.46 -0.1 0.0
0.465 -0.1 0.0
0.47000000000000003 -0.1 0.0
0.47500000000000003 -0.1 0.0
0.48 -0.1 0.0
0.485 -0.1 0.0
0.49 -0.1 0.0
0.495 -0.1 0.0
0.5 -0.1 0.0
0.505 -0.1 0.0
0.51 -0.1 0.0
0.515 -0.1 0.0
0.52 -0.1 0.0
0.525 -0.1 0.0
0.53 -0.1 0.0
0.535 -0.1 0.0
0.54 -0.1 0.0
0.545 -0.1 0.0
0.55 -0.1 0.0
0.555 -0.1 0.0
0.56 -0.1 0.0
0.5650000000000001 -0.1 0.0
0.5700000000000001 -0.1 0.0
0.5750000000000001 -0.1 0.0
0.58 -0.1 0.0
0.585 -0.1 0.0
0.59 -0.1 0.0
0.595 -0.1 0.0
0.6 -0.1 0.0
0.605 -0.1 0.0
0.61 -0.1 0.0
0.615 -0.1 0.0
0.62 -0.1 0.0
0.625 -0.1 0.0
0.63 -0.1 0.0
0.635 -0.1 0.0
0.64 -0.1 0.0
0.645 -0.1 0.0
0.65 -0.1 0.0
0.655 -0.1 0.0
0.66 -0.1 0.0
0.665 -0.1 0.0
0.67 -0.1 0.0
0.675 -0.1 0.0
0.68 -0.1 0.0
0.685 -0.1 0.0
0.6900000000000001 -0.1 0.0
0.6950000000000001 -0.1 0.0
0.7000000000000001 -0.1 0.0
0.705 -0.1 0.0
0.71 -0.1 0.0
0.715 -0.1 0.0
0.72 -0.1 0.0
0.725 -0.1 0.0
0.73 -0.1 0.0
0.735 -0.1 0.0
0.74 -0.1 0.0
0.745 -0.1 0.0
0.75 -0.1 0.0
0.755 -0.1 0.0
0.76 -0.1 0.0
0.765 -0.1 0.0
0.77 -0.1 0.0
0.775 -0.1 0.0
0.78 -0.1 0.0
0.785 -0.1 0.0
0.79 -0.1 0.0
0.795 -0.1 0.0
0.8 -0.1 0.0
0.805 -0.1 0.0
0.81 -0.1 0.0
0.8150000000000001 -0.1 0.0
0.8200000000000001 -0.1 0.0
0.8250000000000001 -0.1 0.0
0.8300000000000001 -0.1 0.0
0.835 -0.1 0.0
0.84 -0.1 0.0
0.845 -0.1 0.0
0.85 -0.1 0.0
0.855 -0.1 0.0
0.86 -0.1 0.0
0.865 -0.1 0.0
0.87 -0.1 0.0
0.875 -0.1 0.0
0.88 -0.1 0.0
0.885 -0.1 0.0
0.89 -0.1 0.0
0.895 -0.1 0.0
0.9 -0.1 0.0
0.905 -0.1 0.0
0.91 -0.1 0.0
0.915 -0.1 0.0
0.92 -0.1 0.0
0.925 -0.1 0.0
0.93 -0.1 0.0
0.935 -0.1 0.0
0.9400000000000001 -0.1 0.0
0.9450000000000001 -0.1 0.0
0.9500000000000001 -0.1 0.0
0.9550000000000001 -0.1 0.0
0.96 -0.1 0.0
0.965 -0.1 0.0
0.97 -0.1 0.0
0.975 -0.1 0.0
0.98 -0.1 0.0
0.985 -0.1 0.0
0.99 -0.1 0.0
0.995 -0.1 0.0
1.0 -0.095 0.0
1.0 -0.09 0.0
1.0 -0.085 0.0
1.0 -0.08 0.0
1.0 -0.075 0.0
1.0 -0.07 0.0
1.0 -0.065 0.0
1.0 -0.06 0.0
1.0 -0.055 0.0
[...]
CELL_DATA 7200
VECTORS U double
0.048344180851605856 4.420163675277813e-5 0.0
0.13674768672154006 -0.00011167272543418782 0.0
0.21682861501026837 -0.0003559390007906177 0.0
0.28764218904292227 -0.00035748488077770515 0.0
0.3483855008878108 -0.00023124855480348026 0.0
0.3986597728811167 -9.759091329208216e-5 0.0
0.43843531656622436 -8.134054527524464e-6 0.0
0.46792301971899375 2.6032403277991165e-5 0.0
0.4874264319466684 1.3172153352433071e-5 0.0
0.4972104675904187 -2.8180351434971108e-5 0.0
0.49740806294089057 -7.525904726699408e-5 0.0
0.4879769074834204 -0.00010499015780975223 0.0
0.46871209579088935 -9.721934547181427e-5 0.0
0.43931086283669507 -3.810737515702255e-5 0.0
0.3994761117003928 7.517222947463415e-5 0.0
0.34904101664688764 0.00022803131900118879 0.0
0.2880931735505349 0.0003710296779335926 0.0
0.21707219219124416 0.0003954951059888383 0.0
0.13679108434724802 0.0001923679187533243 0.0
0.04825357577688148 9.50760526911405e-6 0.0
0.04927193829189363 -1.1238426766659334e-6 0.0
0.13792752185736656 -0.00022171556671783278 0.0
0.21776741607904598 -0.0005551363030378372 0.0
0.2883056177107142 -0.000630762246840652 0.0
0.34888854453704704 -0.0004916121524040676 0.0
0.39911273801064723 -0.0002874633151035434 0.0
0.43890114049017154 -0.00012312260391782632 0.0
0.46842268204610055 -4.3219158110731045e-5 0.0
0.4879558041680879 -4.648909855257781e-5 0.0
0.4977529203999607 -0.00010334142270577733 0.0
0.49794258217505905 -0.00017048183736106 0.0
0.4884841458265758 -0.00020226521801049356 0.0
0.46918004925670354 -0.00016065415912266202 0.0
0.4397416830223695 -2.5210217666598962e-5 0.0
0.3998961857588197 0.00019513666696487845 0.0
0.34951458906107774 0.00044888588329386166 0.0
0.28872627300458614 0.0006308304477158929 0.0
0.2179744697745275 0.0005955014831491207 0.0
0.13793065852839723 0.0002908995029839841 0.0
0.04911117952960647 3.9490471229869487e-5 0.0
0.04932257949405483 -9.477915453219209e-6 0.0
0.13832369870897196 -0.00019844549432997732 0.0
0.21811841105110621 -0.000508088976949302 0.0
0.28848026093067686 -0.0006347777068689527 0.0
0.3489444525434595 -0.0005565347719594042 0.0
0.3991534427280259 -0.00038288506250317014 0.0
0.4389987311508187 -0.00022155795135919582 0.0
0.4686021535090513 -0.00013375509640973495 0.0
0.4882037325268928 -0.00012936451207736362 0.0
0.4980327461080525 -0.00018133098321375266 0.0
0.4982085037954536 -0.0002425996444890128 0.0
0.4886930725818002 -0.00026190285464164863 0.0
0.46930283480052803 -0.0001983890019457723 0.0
0.4397748202359755 -3.568412244228002e-5 0.0
0.39987363999938275 0.00020442733905549573 0.0
0.34951330953069737 0.0004519185311897206 0.0
0.28885119516990104 0.0005951324065932931 0.0
0.2182893913568714 0.0005223787877255338 0.0
0.1383306831921083 0.0002440770702857086 0.0
0.04925710138420728 3.5340109913410645e-5 0.0
0.04937005405500865 -2.6227290362990215e-5 0.0
0.13851370101932894 -0.00019429826807776092 0.0
0.21824620079474488 -0.0004560665528065921 0.0
0.2884374810278207 -0.0005944642765222418 0.0
0.3487656374259857 -0.0005641746372226389 0.0
0.39893497873040745 -0.00043576340323242145 0.0
0.4388230753416603 -0.0003005918270538403 0.0
0.46850694648639213 -0.00022095597510148429 0.0
0.48818152081845106 -0.0002143073513104793 0.0
0.49804481209567936 -0.00025885933156437357 0.0
0.4982023483871087 -0.0003095779129456208 0.0
0.48861951721685254 -0.00031605943683692784 0.0
0.4691321892614932 -0.00023982730705476282 0.0
0.4395116988914927 -7.037093210882995e-5 0.0
0.3995670904426809 0.0001620521187206242 0.0
0.34925379417362046 0.00038472915312067797 0.0
0.28874065559150963 0.0004992678875608707 0.0
0.21837030260449133 0.0004285482409386131 0.0
0.13850749400894657 0.00020658041882072776 0.0
0.04932494664041661 3.73307420412755e-5 0.0
0.0494694965037005 -3.426612665629712e-5 0.0
0.13872671522278204 -0.00018905854179918462 0.0
0.21841723450856698 -0.0004186172867115707 0.0
0.28846914461403966 -0.0005618277337675261 0.0
0.3486647309197236 -0.0005686176319731585 0.0
0.3987730013787178 -0.00048204132051666903 0.0
0.43867682407654346 -0.0003759929399389347 0.0
0.4684191622782051 -0.0003088965554368037 0.0
0.4881526474810835 -0.00030166384384001607 0.0
0.49804279039191857 -0.00033746488857695984 0.0
0.49817978915267497 -0.0003754098912626902 0.0
0.48853243743962094 -0.0003687327981752435 0.0
0.4689577883623801 -0.00028319521752448646 0.0
0.43926290770099397 -0.00011343830991755927 0.0
0.3992990175087617 0.00010632108902946486 0.0
0.3490532919204317 0.0003060089927464274 0.0
0.28868742081800963 0.00040252438228139634 0.0
0.21847973684044683 0.000344215570738314 0.0
0.13869086611763268 0.00017098091751012408 0.0
0.04942517798043375 3.47365953777164e-5 0.0
0.04956799395126538 -3.213909701652192e-5 0.0
0.13892906920175302 -0.00016959940559091452 0.0
0.21860505829866686 -0.0003760695982565757 0.0
0.2885603367160904 -0.0005241920005794768 0.0
0.3486494992635735 -0.0005642412888093358 0.0
0.398697883735602 -0.0005190549838497704 0.0
0.4386029371085479 -0.0004454740001440285 0.0
0.46838596437260577 -0.0003952015474050114 0.0
0.48816425511763195 -0.00038996641909532577 0.0
0.4980731734197282 -0.0004175462739668658 0.0
0.4981878780541394 -0.0004425788494477032 0.0
0.4884804878033628 -0.0004238235235136377 0.0
0.46882883778079915 -0.000332462150490392 0.0
0.4390734742853226 -0.0001676219264325816 0.0
0.3991013722740833 3.552277941465483e-5 0.0
0.3489198508964255 0.00021282817744933645 0.0
0.2886745094162364 0.0002968503841319209 0.0
0.21858685378447687 0.0002550657751623431 0.0
0.13884427499348978 0.00012669089519974769 0.0
0.04950933072588553 2.5867984676383327e-5 0.0
0.04965238931598872 -2.7418399742747422e-5 0.0
0.13910405429103628 -0.00014721915441242884 0.0
0.2187792191353267 -0.0003341157568304415 0.0
0.28866638802873373 -0.00048482498161124624 0.0
0.34867123935752553 -0.0005526847909738374 0.0
0.39866504717787643 -0.0005464114235817092 0.0
0.438562509565196 -0.000506957264382221 0.0
0.46837202652105214 -0.00047710303900852524 0.0
0.48818244809441597 -0.00047737050571740477 0.0
0.4981023791346613 -0.000499405327708759 0.0
0.4981929857040115 -0.0005138212690843874 0.0
0.4884296055597746 -0.0004857607895555801 0.0
0.46870966681907894 -0.0003921580441818255 0.0
0.43890389274749275 -0.00023570730609529555 0.0
0.3989285260684263 -5.0310374499851605e-5 0.0
0.3488028493713564 0.00010831807160041927 0.0
0.28865403250350785 0.00018756768170668863 0.0
0.2186572024213652 0.00016784629315229864 0.0
0.1389486907367436 8.323478309814672e-5 0.0
0.049566135904245814 1.6505279275589784e-5 0.0
0.049725228851799225 -2.345653970112199e-5 0.0
0.13925875373951674 -0.00012927140595971246 0.0
0.21894223267138616 -0.0003010507164792125 0.0
0.28878074056253267 -0.00045340516498423297 0.0
0.34871729852746153 -0.000543734230860349 0.0
0.39866053062904994 -0.0005715593823447822 0.0
0.43854289313735045 -0.0005646116502921753 0.0
0.4683658199476998 -0.0005563697265111259 0.0
0.4881959227374311 -0.0005647757343063181 0.0
0.4981189024759549 -0.0005842508730826916 0.0
0.4981834753997263 -0.0005909593306270368 0.0
0.4883680773135471 -0.0005562951438349244 0.0
0.46858802301815167 -0.00046248824510830675 0.0
0.43874042093529675 -0.0003146653093792352 0.0
0.39876494175888405 -0.00014403174916947478 0.0
0.3486874489447549 2.5966327360809103e-6 0.0
0.2886167562515904 8.477143064022313e-5 0.0
0.21869102889009961 9.043485392598207e-5 0.0
0.13901104387877591 4.628687758047689e-5 0.0
0.04960048045617339 8.914543373193286e-6 0.0
0.04978981043567918 -2.0665677022647443e-5 0.0
0.13940031914179854 -0.00011678039177148222 0.0
0.2191003801370378 -0.00027859205327466997 0.0
0.2889062651686005 -0.0004336842897448303 0.0
0.3487884777624103 -0.0005431992754109473 0.0
0.39868573374654326 -0.000600631588322056 0.0
0.4385475318654124 -0.0006233621772440461 0.0
0.4683725844796347 -0.0006364094854084444 0.0
0.4882107936817162 -0.0006544850672578841 0.0
0.49812902469651654 -0.0006737705163355938 0.0
0.49816542797991686 -0.0006751897255059313 0.0
0.48830141159996343 -0.0006357588304872173 0.0
0.4684681257031785 -0.000542231408466124 0.0
0.4385850607591392 -0.0004011923585434002 0.0
0.39861015438694325 -0.00024055646588504406 0.0
0.34857223962254646 -9.915532243947765e-5 0.0
0.2885633441620525 -8.352047996888027e-6 0.0
0.2186931691857271 2.3636447507693474e-5 0.0
0.13903859498840712 1.567203556871811e-5 0.0
0.049616819161944985 2.9286544904193024e-6 0.0
0.04984886839100203 -1.8925281651303218e-5 0.0
0.13953358590211556 -0.00010917572230972757 0.0
0.21925711166969492 -0.0002658572434305437 0.0
0.2890434158111513 -0.00042567265176776247 0.0
0.34888340853013666 -0.0005527942610968116 0.0
0.3987398117262955 -0.0006366204967820093 0.0
0.43857761037146825 -0.000686501218672562 0.0
0.4683956708446583 -0.0007201316121307871 0.0
0.4882318387467533 -0.0007488194603441479 0.0
0.4981380338943638 -0.000769730197208404 0.0
0.49814382581519573 -0.000767712204172816 0.0
0.48823348425390156 -0.0007246260854391302 0.0
0.46835187305468245 -0.0006309594226873241 0.0
0.4384370698420522 -0.0004940681202358741 0.0
0.39846103345489986 -0.0003385338654797356 0.0
0.34845341522793233 -0.00019652066473207342 0.0
0.28849205184479637 -9.292456553018076e-5 0.0
0.21866564482827847 -3.452429701578298e-5 0.0
0.1390358495418107 -1.005854156005982e-5 0.0
0.04961820276794811 -1.8938935619417736e-6 0.0
0.049904889948803974 -1.8102819540719573e-5 0.0
0.13966285627701988 -0.00010588719347097929 0.0
0.21941544823905798 -0.0002619208455371865 0.0
0.28919226111138013 -0.00042889504221880494 0.0
0.3489997532101971 -0.000573210634599315 0.0
0.3988198803877247 -0.000681384663730867 0.0
0.4386313176850319 -0.000756509588659264 0.0
0.4684349066855641 -0.000810058740291433 0.0
0.4882601579195233 -0.0008500224641799512 0.0
0.4981475102288799 -0.0008739817410488771 0.0
0.4981198560504244 -0.0008699245271218262 0.0
0.48816424511808565 -0.000823762196417811 0.0
0.4682372706644363 -0.0007289948164397164 0.0
0.4382922814296535 -0.0005933043388109464 0.0
0.3983119999237496 -0.00043820917841782745 0.0
0.34832588126677805 -0.0002905505712720299 0.0
0.2884005063185919 -0.00017086231279331054 0.0
0.2186097406868977 -8.610271778340966e-5 0.0
0.13900627127107937 -3.214758492774049e-5 0.0
0.049606966505723854 -5.873857583180005e-6 0.0
0.049960090598336955 -1.805903255368712e-5 0.0
0.13979222329478305 -0.00010640302398667037 0.0
0.219578820094824 -0.0002660419730816847 0.0
0.28935398647234073 -0.0004430171618835868 0.0
0.34913648245666323 -0.0006050871248108824 0.0
0.3989239243495398 -0.000736596068536835 0.0
0.43870701615078433 -0.0008357160531555314 0.0
0.4684897061638198 -0.0009086995299781028 0.0
0.4882960919259064 -0.0009604467196995115 0.0
0.4981581102912362 -0.000988549568083386 0.0
0.4980937157931953 -0.000983434900239333 0.0
0.4880926927047048 -0.0009343153084653437 0.0
0.4681216147594832 -0.0008370784321532183 0.0
0.4381463377409618 -0.0006994763485437249 0.0
0.3981579545934684 -0.0005404110121864416 0.0
0.3481854679174402 -0.00038268096820301303 0.0
0.2882870533268256 -0.00024413382355803305 0.0
0.2185266808090672 -0.00013297637547874885 0.0
0.13895258652986292 -5.166862073254146e-5 0.0
0.04958483749229376 -9.277134759383183e-6 0.0
0.050016395588986864 -1.8670353166811865e-5 0.0
0.1399254699601975 -0.0001102811895231856 0.0
0.21975083165413367 -0.0002775953525115009 0.0
0.2895306443463056 -0.00046775913765496365 0.0
0.34929388488170804 -0.0006489877541566804 0.0
0.39905123617538013 -0.0008037814848393236 0.0
0.43880403459761724 -0.0009263522005966927 0.0
0.4685600494358785 -0.0010185860028116141 0.0
0.4883402546957528 -0.0010825795815441385 0.0
0.4981706003396856 -0.0011156607696289126 0.0
0.4980656490913538 -0.0011101001230092288 0.0
0.4880179153762062 -0.001057748124630704 0.0
0.4680024774346632 -0.0009563697204419202 0.0
0.4379954721267486 -0.0008136779130585655 0.0
0.3979946705362871 -0.0006464881510941213 0.0
0.3480288406792482 -0.0004747110382355007 0.0
0.2881503687223155 -0.00031481273789159606 0.0
0.2184172749322156 -0.0001769315653955238 0.0
0.1388766576815371 -6.957998772734712e-5 0.0
0.04955296472700878 -1.232875075502467e-5 0.0
0.050075502393294447 -1.9850458340130248e-5 0.0
0.14006610825876878 -0.00011720729763615227 0.0
0.21993513174530122 -0.0002961423961800215 0.0
0.2897248090206252 -0.0005029715909022349 0.0
0.3494731150876557 -0.0007054770162637281 0.0
0.3992020062003825 -0.0008843808882204229 0.0
0.4389223626154721 -0.0010305796674690798 0.0
0.46864625198169024 -0.0011422732228623487 0.0
0.48839332499698507 -0.0012190411266696727 0.0
0.49818564331248366 -0.0012577660794728166 0.0
0.4980357288379093 -0.0012520762356342126 0.0
0.4879388662010735 -0.0011959027990735146 0.0
0.4678774438954657 -0.0010884932866190525 0.0
0.43783615013026783 -0.0009375186943567983 0.0
0.3978183002267738 -0.0007582544118239659 0.0
0.3478529351360567 -0.0005687197234367428 0.0
0.28798898994177674 -0.0003850026894365495 0.0
0.21828169733516894 -0.00021961874155176453 0.0
0.13877949676599574 -8.670527585953868e-5 0.0
0.049511999633068064 -1.5207849053350178e-5 0.0
0.050138967111935114 -2.1551155909542503e-5 0.0
0.14021749810278034 -0.00012701190232669682 0.0
0.22013545798742104 -0.0003214895958067455 0.0
0.2899394963883705 -0.0005487529934736372 0.0
0.349676024695586 -0.0007752844416690084 0.0
0.39937713985509865 -0.0009799149046207237 0.0
0.4390625017814414 -0.0011506199935259417 0.0
0.46874884220698443 -0.0012824222300129404 0.0
0.4884559232933901 -0.0013726359488332484 0.0
0.49820366269830735 -0.0014175804442037286 0.0
0.4980037123752367 -0.0014118542279336786 0.0
0.48785421445471944 -0.0013510182442695794 0.0
0.46774394505618805 -0.0012355117356444823 0.0
0.4376648528726108 -0.0010730333002438202 0.0
0.3976251003617377 -0.0008778445334276362 0.0
0.34765467661624705 -0.0006669161799880541 0.0
0.2878011257543497 -0.00045673816104502794 0.0
0.21811945138002253 -0.00026252097466949304 0.0
0.13866135167742843 -0.0001037402818503083 0.0
0.04946218180460512 -1.805534501030543e-5 0.0
0.05020828464636864 -2.375578454628348e-5 0.0
0.14038297175615108 -0.00013965929203092504 0.0
0.22035572310458298 -0.0003536956856704751 0.0
0.2901781808406656 -0.0006055034089620746 0.0
0.34990513773003645 -0.000859413181645405 0.0
0.3995782448775803 -0.0010921231922930408 0.0
0.4392254960932135 -0.0012888870677073391 0.0
0.4688686288577159 -0.0014419056029766415 0.0
0.4885286923032918 -0.0015464292395337771 0.0
0.49822491839116734 -0.0015981351111442833 0.0
0.49796910681514495 -0.0015922897224496624 0.0
0.48776239408707095 -0.0015257303205855523 0.0
0.46759927058719697 -0.0013998862066539667 0.0
0.43747802943868613 -0.001222601871047945 0.0
0.39741131918715766 -0.0010076163558699514 0.0
0.3474308431980221 -0.0007715641889570079 0.0
0.2875845653769865 -0.0005319615267318837 0.0
0.21792937357902428 -0.0003069749013934849 0.0
0.13852178525527303 -0.0001212818320822021 0.0
0.0494034062747581 -2.0985155369520875e-5 0.0
0.050284958226848676 -2.647373371434727e-5 0.0
0.14056595205761827 -0.00015523329134447392 0.0
0.22060010789715112 -0.0003930620756321691 0.0
0.29044482996354576 -0.000673941933850045 0.0
0.35016364414295464 -0.0009591976211309437 0.0
0.3998076263529261 -0.0012230547482148472 0.0
0.4394129590332715 -0.0014480883796660117 0.0
0.4690067632676054 -0.0016238997989989666 0.0
0.4886123781453602 -0.001743821585248585 0.0
0.49824958820752474 -0.0018028333837824592 0.0
0.4979312378406592 -0.0017966382589450936 0.0
0.4876616462069324 -0.0017230833303333985 0.0
0.46744056687822516 -0.0015844621556671133 0.0
0.437272034948609 -0.001388916862504303 0.0
0.397173081988459 -0.001150117445540928 0.0
0.34717793937621555 -0.000884971749334454 0.0
0.2873365989344136 -0.0006125447664902646 0.0
0.2177096343386724 -0.0003542093471456788 0.0
0.13835973447047759 -0.0001398570574559968 0.0
0.049335271209040375 -2.40932465408761e-5 0.0
0.05037056145061995 -2.9736909982826292e-5 0.0
0.14077006817218793 -0.0001739286256824433 0.0
0.22087316500698834 -0.00044012852817430597 0.0
0.2907439592283553 -0.0007551224078466925 0.0
0.35045540808518616 -0.0010763499137089179 0.0
0.4000682763859464 -0.0013751425387682936 0.0
0.4396270735305074 -0.001631313415358666 0.0
0.4691647584519077 -0.001831971859866368 0.0
0.4887078608064413 -0.0019686245405662315 0.0
0.4982777965968574 -0.0020355108149835836 0.0
0.49788926323814864 -0.0020285984035957124 0.0
0.4875500048903789 -0.0019465542804653992 0.0
0.46726478207450833 -0.00179247496489093 0.0
0.43704303012236023 -0.0015749768282779708 0.0
0.39690626036682575 -0.0013080814336570517 0.0
0.3468920734416432 -0.0010095038335953578 0.0
0.2870539460139743 -0.0007003205412312173 0.0
0.21745773501449522 -0.0004053812133021929 0.0
0.13817355222345754 -0.00015994631973320958 0.0
0.049257110488586865 -2.7463883669571427e-5 0.0
0.05046679644511027 -3.359823391573004e-5 0.0
0.14099927181538693 -0.00019604835962545863 0.0
0.22117993625229185 -0.0004956776679052905 0.0
0.2910807127087512 -0.0008504572523541624 0.0
0.3507850042108907 -0.0012130120070356063 0.0
0.4003638822307096 -0.0015512805008072398 0.0
0.4398705935471244 -0.0018421245775816662 0.0
0.4693444950972967 -0.002070171546833406 0.0
0.4888161623153483 -0.002225143128092605 0.0
0.4983096162886604 -0.0023005030439573666 0.0
0.497842157672359 -0.0022923621893511663 0.0
0.4874252552195879 -0.0022000848700177694 0.0
0.4670685898663326 -0.002027565647204582 0.0
0.4367868719435534 -0.0017840929592004605 0.0
0.39660634722285193 -0.0014844364203527205 0.0
0.34656884905500585 -0.0011476017308627894 0.0
0.2867326937324632 -0.000797112449783858 0.0
0.21717050095499352 -0.0004616058428607703 0.0
0.13796103390678802 -0.0001820008220119201 0.0
0.04916801464790105 -3.1173951494925386e-5 0.0
0.05057555171523631 -3.8131827839187796e-5 0.0
0.14125795872810415 -0.0002220075348809765 0.0
0.22152608474791277 -0.0005607500613353084 0.0
0.2914609679533604 -0.0009617533477888353 0.0
0.35115778162063466 -0.0013718174947084574 0.0
0.4006988576320006 -0.0017549092861613325 0.0
0.4401468572668579 -0.0020846566178233912 0.0
0.4695482277531041 -0.0023431316129344025 0.0
0.488938447587396 -0.002518267043601921 0.0
0.4983450578900293 -0.0026027216423892574 0.0
0.4977886841324988 -0.002592673033035361 0.0
0.487284878758835 -0.0024881210229955883 0.0
0.4668483056377487 -0.002293804688675103 0.0
0.43649900496687705 -0.002019904126234049 0.0
0.39626834080692575 -0.001682320442652494 0.0
0.34620326773535387 -0.0013018054418762 0.0
0.2863682393045843 -0.00090476275053338 0.0
0.2168440679083004 -0.0005239817531083213 0.0
0.1377194308704617 -0.0002064560879271319 0.0
0.04906684325349155 -3.529604666544267e-5 0.0
0.05069896319730795 -4.343460184881855e-5 0.0
0.14155110048856492 -0.0002523434957409437 0.0
0.22191804500457518 -0.0006366724652000079 0.0
0.29189146471123045 -0.0010912641106026752 0.0
0.35157995300098077 -0.0015559692680255244 0.0
0.40107839299520975 -0.0019901159171469805 0.0
0.4404598096092687 -0.0023637288912005112 0.0
0.46977858947574774 -0.0026561801611449626 0.0
0.4890760150463957 -0.0028535729510958075 0.0
0.49838404492858734 -0.002947739696021314 0.0
0.4977273487181971 -0.002934891182416031 0.0
0.48712598451811784 -0.00281565866550315 0.0
0.466599792738082 -0.0025957218999690477 0.0
0.4361743499664697 -0.0022863975181163765 0.0
0.3958866318768035 -0.0019051004170680783 0.0
0.3457896356259423 -0.0014747754069775532 0.0
0.28595523226745 -0.001025155972323784 0.0
0.216473860923935 -0.0005936099075764836 0.0
0.1374454529527295 -0.00023374141767954198 0.0
0.04895223082418806 -3.9900436992446455e-5 0.0
0.05083948251495253 -4.9629681883747995e-5 0.0
0.1418843935884491 -0.00028773416476027784 0.0
0.22236319679587085 -0.0007251019791418261 0.0
0.29237995995619775 -0.001241763060633123 0.0
0.35205870730157574 -0.001769341020357406 0.0
0.4015085216349996 -0.002261756338503937 0.0
0.44081402918751666 -0.0026849775567404813 0.0
0.47003859005332577 -0.0030154700282372907 0.0
0.48923027197990127 -0.00323744033140906 0.0
0.498426369102316 -0.0033418872266652057 0.0