# vtk DataFile Version 3.0
XCALibre.jl simulation data
ASCII
DATASET UNSTRUCTURED_GRID
POINTS 7441 double
0.0 0.0 0.0
0.2 0.0 0.0
0.2 0.1 0.0
0.0 0.1 0.0
1.0 0.1 0.0
1.0 0.0 0.0
0.2 -0.1 0.0
1.0 -0.1 0.0
0.005 0.0 0.0
0.01 0.0 0.0
0.015 0.0 0.0
0.02 0.0 0.0
0.025 0.0 0.0
0.03 0.0 0.0
0.035 0.0 0.0
0.04 0.0 0.0
0.045 0.0 0.0
0.05 0.0 0.0
0.055 0.0 0.0
0.06 0.0 0.0
0.065 0.0 0.0
0.07 0.0 0.0
0.075 0.0 0.0
0.08 0.0 0.0
0.085 0.0 0.0
0.09 0.0 0.0
0.095 0.0 0.0
0.1 0.0 0.0
0.105 0.0 0.0
0.11 0.0 0.0
0.115 0.0 0.0
0.12 0.0 0.0
0.125 0.0 0.0
0.13 0.0 0.0
0.135 0.0 0.0
0.14 0.0 0.0
0.145 0.0 0.0
0.15 0.0 0.0
0.155 0.0 0.0
0.16 0.0 0.0
0.165 0.0 0.0
0.17 0.0 0.0
0.17500000000000002 0.0 0.0
0.18 0.0 0.0
0.185 0.0 0.0
0.19 0.0 0.0
0.195 0.0 0.0
0.2 0.095 0.0
0.2 0.09 0.0
0.2 0.085 0.0
0.2 0.08 0.0
0.2 0.075 0.0
0.2 0.07 0.0
0.2 0.065 0.0
0.2 0.06 0.0
0.2 0.055 0.0
0.2 0.05 0.0
0.2 0.045 0.0
0.2 0.04 0.0
0.2 0.035 0.0
0.2 0.03 0.0
0.2 0.025 0.0
0.2 0.02 0.0
0.2 0.015 0.0
0.2 0.01 0.0
0.2 0.005 0.0
0.005 0.1 0.0
0.01 0.1 0.0
0.015 0.1 0.0
0.02 0.1 0.0
0.025 0.1 0.0
0.03 0.1 0.0
0.035 0.1 0.0
0.04 0.1 0.0
0.045 0.1 0.0
0.05 0.1 0.0
0.055 0.1 0.0
0.06 0.1 0.0
0.065 0.1 0.0
0.07 0.1 0.0
0.075 0.1 0.0
0.08 0.1 0.0
0.085 0.1 0.0
0.09 0.1 0.0
0.095 0.1 0.0
0.1 0.1 0.0
0.105 0.1 0.0
0.11 0.1 0.0
0.115 0.1 0.0
0.12 0.1 0.0
0.125 0.1 0.0
0.13 0.1 0.0
0.135 0.1 0.0
0.14 0.1 0.0
0.145 0.1 0.0
0.15 0.1 0.0
0.155 0.1 0.0
0.16 0.1 0.0
0.165 0.1 0.0
0.17 0.1 0.0
0.17500000000000002 0.1 0.0
0.18 0.1 0.0
0.185 0.1 0.0
0.19 0.1 0.0
0.195 0.1 0.0
0.0 0.005 0.0
0.0 0.01 0.0
0.0 0.015 0.0
0.0 0.02 0.0
0.0 0.025 0.0
0.0 0.03 0.0
0.0 0.035 0.0
0.0 0.04 0.0
0.0 0.045 0.0
0.0 0.05 0.0
0.0 0.055 0.0
0.0 0.06 0.0
0.0 0.065 0.0
0.0 0.07 0.0
0.0 0.075 0.0
0.0 0.08 0.0
0.0 0.085 0.0
0.0 0.09 0.0
0.0 0.095 0.0
1.0 0.095 0.0
1.0 0.09 0.0
1.0 0.085 0.0
1.0 0.08 0.0
1.0 0.075 0.0
1.0 0.07 0.0
1.0 0.065 0.0
1.0 0.06 0.0
1.0 0.055 0.0
1.0 0.05 0.0
1.0 0.045 0.0
1.0 0.04 0.0
1.0 0.035 0.0
1.0 0.03 0.0
1.0 0.025 0.0
1.0 0.02 0.0
1.0 0.015 0.0
1.0 0.01 0.0
1.0 0.005 0.0
0.20500000000000002 0.1 0.0
0.21 0.1 0.0
0.215 0.1 0.0
0.22 0.1 0.0
0.225 0.1 0.0
0.23 0.1 0.0
0.23500000000000001 0.1 0.0
0.24 0.1 0.0
0.245 0.1 0.0
0.25 0.1 0.0
0.255 0.1 0.0
0.26 0.1 0.0
0.265 0.1 0.0
0.27 0.1 0.0
0.275 0.1 0.0
0.28 0.1 0.0
0.28500000000000003 0.1 0.0
0.29 0.1 0.0
0.295 0.1 0.0
0.3 0.1 0.0
0.305 0.1 0.0
0.31 0.1 0.0
0.315 0.1 0.0
0.32 0.1 0.0
0.325 0.1 0.0
0.33 0.1 0.0
0.335 0.1 0.0
0.34 0.1 0.0
0.34500000000000003 0.1 0.0
0.35000000000000003 0.1 0.0
0.355 0.1 0.0
0.36 0.1 0.0
0.365 0.1 0.0
0.37 0.1 0.0
0.375 0.1 0.0
0.38 0.1 0.0
0.385 0.1 0.0
0.39 0.1 0.0
0.395 0.1 0.0
0.4 0.1 0.0
0.405 0.1 0.0
0.41000000000000003 0.1 0.0
0.41500000000000004 0.1 0.0
0.42 0.1 0.0
0.425 0.1 0.0
0.43 0.1 0.0
0.435 0.1 0.0
0.44 0.1 0.0
0.445 0.1 0.0
0.45 0.1 0.0
0.455 0.1 0.0
0.46 0.1 0.0
0.465 0.1 0.0
0.47000000000000003 0.1 0.0
0.47500000000000003 0.1 0.0
0.48 0.1 0.0
0.485 0.1 0.0
0.49 0.1 0.0
0.495 0.1 0.0
0.5 0.1 0.0
0.505 0.1 0.0
0.51 0.1 0.0
0.515 0.1 0.0
0.52 0.1 0.0
0.525 0.1 0.0
0.53 0.1 0.0
0.535 0.1 0.0
0.54 0.1 0.0
0.545 0.1 0.0
0.55 0.1 0.0
0.555 0.1 0.0
0.56 0.1 0.0
0.5650000000000001 0.1 0.0
0.5700000000000001 0.1 0.0
0.5750000000000001 0.1 0.0
0.58 0.1 0.0
0.585 0.1 0.0
0.59 0.1 0.0
0.595 0.1 0.0
0.6 0.1 0.0
0.605 0.1 0.0
0.61 0.1 0.0
0.615 0.1 0.0
0.62 0.1 0.0
0.625 0.1 0.0
0.63 0.1 0.0
0.635 0.1 0.0
0.64 0.1 0.0
0.645 0.1 0.0
0.65 0.1 0.0
0.655 0.1 0.0
0.66 0.1 0.0
0.665 0.1 0.0
0.67 0.1 0.0
0.675 0.1 0.0
0.68 0.1 0.0
0.685 0.1 0.0
0.6900000000000001 0.1 0.0
0.6950000000000001 0.1 0.0
0.7000000000000001 0.1 0.0
0.705 0.1 0.0
0.71 0.1 0.0
0.715 0.1 0.0
0.72 0.1 0.0
0.725 0.1 0.0
0.73 0.1 0.0
0.735 0.1 0.0
0.74 0.1 0.0
0.745 0.1 0.0
0.75 0.1 0.0
0.755 0.1 0.0
0.76 0.1 0.0
0.765 0.1 0.0
0.77 0.1 0.0
0.775 0.1 0.0
0.78 0.1 0.0
0.785 0.1 0.0
0.79 0.1 0.0
0.795 0.1 0.0
0.8 0.1 0.0
0.805 0.1 0.0
0.81 0.1 0.0
0.8150000000000001 0.1 0.0
0.8200000000000001 0.1 0.0
0.8250000000000001 0.1 0.0
0.8300000000000001 0.1 0.0
0.835 0.1 0.0
0.84 0.1 0.0
0.845 0.1 0.0
0.85 0.1 0.0
0.855 0.1 0.0
0.86 0.1 0.0
0.865 0.1 0.0
0.87 0.1 0.0
0.875 0.1 0.0
0.88 0.1 0.0
0.885 0.1 0.0
0.89 0.1 0.0
0.895 0.1 0.0
0.9 0.1 0.0
0.905 0.1 0.0
0.91 0.1 0.0
0.915 0.1 0.0
0.92 0.1 0.0
0.925 0.1 0.0
0.93 0.1 0.0
0.935 0.1 0.0
0.9400000000000001 0.1 0.0
0.9450000000000001 0.1 0.0
0.9500000000000001 0.1 0.0
0.9550000000000001 0.1 0.0
0.96 0.1 0.0
0.965 0.1 0.0
0.97 0.1 0.0
0.975 0.1 0.0
0.98 0.1 0.0
0.985 0.1 0.0
0.99 0.1 0.0
0.995 0.1 0.0
0.995 0.0 0.0
0.99 0.0 0.0
0.985 0.0 0.0
0.98 0.0 0.0
0.975 0.0 0.0
0.97 0.0 0.0
0.965 0.0 0.0
0.96 0.0 0.0
0.9550000000000001 0.0 0.0
0.9500000000000001 0.0 0.0
0.9450000000000001 0.0 0.0
0.9400000000000001 0.0 0.0
0.935 0.0 0.0
0.93 0.0 0.0
0.925 0.0 0.0
0.92 0.0 0.0
0.915 0.0 0.0
0.91 0.0 0.0
0.905 0.0 0.0
0.9 0.0 0.0
0.895 0.0 0.0
0.89 0.0 0.0
0.885 0.0 0.0
0.88 0.0 0.0
0.875 0.0 0.0
0.87 0.0 0.0
0.865 0.0 0.0
0.86 0.0 0.0
0.855 0.0 0.0
0.85 0.0 0.0
0.845 0.0 0.0
0.84 0.0 0.0
0.835 0.0 0.0
0.8300000000000001 0.0 0.0
0.8250000000000001 0.0 0.0
0.8200000000000001 0.0 0.0
0.8150000000000001 0.0 0.0
0.81 0.0 0.0
0.805 0.0 0.0
0.8 0.0 0.0
0.795 0.0 0.0
0.79 0.0 0.0
0.785 0.0 0.0
0.78 0.0 0.0
0.775 0.0 0.0
0.77 0.0 0.0
0.765 0.0 0.0
0.76 0.0 0.0
0.755 0.0 0.0
0.75 0.0 0.0
0.745 0.0 0.0
0.74 0.0 0.0
0.735 0.0 0.0
0.73 0.0 0.0
0.725 0.0 0.0
0.72 0.0 0.0
0.715 0.0 0.0
0.71 0.0 0.0
0.705 0.0 0.0
0.7000000000000001 0.0 0.0
0.6950000000000001 0.0 0.0
0.6900000000000001 0.0 0.0
0.685 0.0 0.0
0.68 0.0 0.0
0.675 0.0 0.0
0.67 0.0 0.0
0.665 0.0 0.0
0.66 0.0 0.0
0.655 0.0 0.0
0.65 0.0 0.0
0.645 0.0 0.0
0.64 0.0 0.0
0.635 0.0 0.0
0.63 0.0 0.0
0.625 0.0 0.0
0.62 0.0 0.0
0.615 0.0 0.0
0.61 0.0 0.0
0.605 0.0 0.0
0.6 0.0 0.0
0.595 0.0 0.0
0.59 0.0 0.0
0.585 0.0 0.0
0.58 0.0 0.0
0.5750000000000001 0.0 0.0
0.5700000000000001 0.0 0.0
0.5650000000000001 0.0 0.0
0.56 0.0 0.0
0.555 0.0 0.0
0.55 0.0 0.0
0.545 0.0 0.0
0.54 0.0 0.0
0.535 0.0 0.0
0.53 0.0 0.0
0.525 0.0 0.0
0.52 0.0 0.0
0.515 0.0 0.0
0.51 0.0 0.0
0.505 0.0 0.0
0.5 0.0 0.0
0.495 0.0 0.0
0.49 0.0 0.0
0.485 0.0 0.0
0.48 0.0 0.0
0.47500000000000003 0.0 0.0
0.47000000000000003 0.0 0.0
0.465 0.0 0.0
0.46 0.0 0.0
0.455 0.0 0.0
0.45 0.0 0.0
0.445 0.0 0.0
0.44 0.0 0.0
0.435 0.0 0.0
0.43 0.0 0.0
0.425 0.0 0.0
0.42 0.0 0.0
0.41500000000000004 0.0 0.0
0.41000000000000003 0.0 0.0
0.405 0.0 0.0
0.4 0.0 0.0
0.395 0.0 0.0
0.39 0.0 0.0
0.385 0.0 0.0
0.38 0.0 0.0
0.375 0.0 0.0
0.37 0.0 0.0
0.365 0.0 0.0
0.36 0.0 0.0
0.355 0.0 0.0
0.35000000000000003 0.0 0.0
0.34500000000000003 0.0 0.0
0.34 0.0 0.0
0.335 0.0 0.0
0.33 0.0 0.0
0.325 0.0 0.0
0.32 0.0 0.0
0.315 0.0 0.0
0.31 0.0 0.0
0.305 0.0 0.0
0.3 0.0 0.0
0.295 0.0 0.0
0.29 0.0 0.0
0.28500000000000003 0.0 0.0
0.28 0.0 0.0
0.275 0.0 0.0
0.27 0.0 0.0
0.265 0.0 0.0
0.26 0.0 0.0
0.255 0.0 0.0
0.25 0.0 0.0
0.245 0.0 0.0
0.24 0.0 0.0
0.23500000000000001 0.0 0.0
0.23 0.0 0.0
0.225 0.0 0.0
0.22 0.0 0.0
0.215 0.0 0.0
0.21 0.0 0.0
0.20500000000000002 0.0 0.0
0.2 -0.005 0.0
0.2 -0.01 0.0
0.2 -0.015 0.0
0.2 -0.02 0.0
0.2 -0.025 0.0
0.2 -0.03 0.0
0.2 -0.035 0.0
0.2 -0.04 0.0
0.2 -0.045 0.0
0.2 -0.05 0.0
0.2 -0.055 0.0
0.2 -0.06 0.0
0.2 -0.065 0.0
0.2 -0.07 0.0
0.2 -0.075 0.0
0.2 -0.08 0.0
0.2 -0.085 0.0
0.2 -0.09 0.0
0.2 -0.095 0.0
0.20500000000000002 -0.1 0.0
0.21 -0.1 0.0
0.215 -0.1 0.0
0.22 -0.1 0.0
0.225 -0.1 0.0
0.23 -0.1 0.0
0.23500000000000001 -0.1 0.0
0.24 -0.1 0.0
0.245 -0.1 0.0
0.25 -0.1 0.0
0.255 -0.1 0.0
0.26 -0.1 0.0
0.265 -0.1 0.0
0.27 -0.1 0.0
0.275 -0.1 0.0
0.28 -0.1 0.0
0.28500000000000003 -0.1 0.0
0.29 -0.1 0.0
0.295 -0.1 0.0
0.3 -0.1 0.0
0.305 -0.1 0.0
0.31 -0.1 0.0
0.315 -0.1 0.0
0.32 -0.1 0.0
0.325 -0.1 0.0
0.33 -0.1 0.0
0.335 -0.1 0.0
0.34 -0.1 0.0
0.34500000000000003 -0.1 0.0
0.35000000000000003 -0.1 0.0
0.355 -0.1 0.0
0.36 -0.1 0.0
0.365 -0.1 0.0
0.37 -0.1 0.0
0.375 -0.1 0.0
0.38 -0.1 0.0
0.385 -0.1 0.0
0.39 -0.1 0.0
0.395 -0.1 0.0
0.4 -0.1 0.0
0.405 -0.1 0.0
0.41000000000000003 -0.1 0.0
0.41500000000000004 -0.1 0.0
0.42 -0.1 0.0
0.425 -0.1 0.0
0.43 -0.1 0.0
0.435 -0.1 0.0
0.44 -0.1 0.0
0.445 -0.1 0.0
0.45 -0.1 0.0
0.455 -0.1 0.0
0.46 -0.1 0.0
0.465 -0.1 0.0
0.47000000000000003 -0.1 0.0
0.47500000000000003 -0.1 0.0
0.48 -0.1 0.0
0.485 -0.1 0.0
0.49 -0.1 0.0
0.495 -0.1 0.0
0.5 -0.1 0.0
0.505 -0.1 0.0
0.51 -0.1 0.0
0.515 -0.1 0.0
0.52 -0.1 0.0
0.525 -0.1 0.0
0.53 -0.1 0.0
0.535 -0.1 0.0
0.54 -0.1 0.0
0.545 -0.1 0.0
0.55 -0.1 0.0
0.555 -0.1 0.0
0.56 -0.1 0.0
0.5650000000000001 -0.1 0.0
0.5700000000000001 -0.1 0.0
0.5750000000000001 -0.1 0.0
0.58 -0.1 0.0
0.585 -0.1 0.0
0.59 -0.1 0.0
0.595 -0.1 0.0
0.6 -0.1 0.0
0.605 -0.1 0.0
0.61 -0.1 0.0
0.615 -0.1 0.0
0.62 -0.1 0.0
0.625 -0.1 0.0
0.63 -0.1 0.0
0.635 -0.1 0.0
0.64 -0.1 0.0
0.645 -0.1 0.0
0.65 -0.1 0.0
0.655 -0.1 0.0
0.66 -0.1 0.0
0.665 -0.1 0.0
0.67 -0.1 0.0
0.675 -0.1 0.0
0.68 -0.1 0.0
0.685 -0.1 0.0
0.6900000000000001 -0.1 0.0
0.6950000000000001 -0.1 0.0
0.7000000000000001 -0.1 0.0
0.705 -0.1 0.0
0.71 -0.1 0.0
0.715 -0.1 0.0
0.72 -0.1 0.0
0.725 -0.1 0.0
0.73 -0.1 0.0
0.735 -0.1 0.0
0.74 -0.1 0.0
0.745 -0.1 0.0
0.75 -0.1 0.0
0.755 -0.1 0.0
0.76 -0.1 0.0
0.765 -0.1 0.0
0.77 -0.1 0.0
0.775 -0.1 0.0
0.78 -0.1 0.0
0.785 -0.1 0.0
0.79 -0.1 0.0
0.795 -0.1 0.0
0.8 -0.1 0.0
0.805 -0.1 0.0
0.81 -0.1 0.0
0.8150000000000001 -0.1 0.0
0.8200000000000001 -0.1 0.0
0.8250000000000001 -0.1 0.0
0.8300000000000001 -0.1 0.0
0.835 -0.1 0.0
0.84 -0.1 0.0
0.845 -0.1 0.0
0.85 -0.1 0.0
0.855 -0.1 0.0
0.86 -0.1 0.0
0.865 -0.1 0.0
0.87 -0.1 0.0
0.875 -0.1 0.0
0.88 -0.1 0.0
0.885 -0.1 0.0
0.89 -0.1 0.0
0.895 -0.1 0.0
0.9 -0.1 0.0
0.905 -0.1 0.0
0.91 -0.1 0.0
0.915 -0.1 0.0
0.92 -0.1 0.0
0.925 -0.1 0.0
0.93 -0.1 0.0
0.935 -0.1 0.0
0.9400000000000001 -0.1 0.0
0.9450000000000001 -0.1 0.0
0.9500000000000001 -0.1 0.0
0.9550000000000001 -0.1 0.0
0.96 -0.1 0.0
0.965 -0.1 0.0
0.97 -0.1 0.0
0.975 -0.1 0.0
0.98 -0.1 0.0
0.985 -0.1 0.0
0.99 -0.1 0.0
0.995 -0.1 0.0
1.0 -0.095 0.0
1.0 -0.09 0.0
1.0 -0.085 0.0
1.0 -0.08 0.0
1.0 -0.075 0.0
1.0 -0.07 0.0
1.0 -0.065 0.0
1.0 -0.06 0.0
1.0 -0.055 0.0
[...]
CELL_DATA 7200
VECTORS U double
0.048171472374982253 -0.00024337056490649622 0.0
0.13776338265033883 -0.00044295754267142636 0.0
0.21799748449579065 -0.0003271327149379129 0.0
0.2881772282746153 -0.0001820596447867239 0.0
0.348155054575597 -8.70964953813091e-5 0.0
0.3979945195851555 -4.3582157985649686e-5 0.0
0.43782025570043015 -3.465947439736737e-5 0.0
0.46773838415764896 -4.301736767461525e-5 0.0
0.4878034088185675 -5.6211910260934724e-5 0.0
0.49801043446409266 -6.564680978625791e-5 0.0
0.4983029812707881 -6.558743344669994e-5 0.0
0.4885893218087065 -5.2124017565998275e-5 0.0
0.4687643340461397 -2.2681147938904357e-5 0.0
0.43873601178706384 2.3337206111709633e-5 0.0
0.39845696044642404 8.186994807474162e-5 0.0
0.3479622512359719 0.00013957563492542478 0.0
0.2874101744884876 0.00016116895905542703 0.0
0.2171131271440879 7.375704653198607e-5 0.0
0.1375211988492297 -0.0001611570553654139 0.0
0.04902957090115018 -0.00016309866850233788 0.0
0.04925775739994516 -0.00019563252542068548 0.0
0.13872413739959846 -0.0004585371801580316 0.0
0.2187291467072861 -0.0004780773218877362 0.0
0.2887869976059234 -0.0003687467765098295 0.0
0.34872034203617897 -0.00024885360939751796 0.0
0.39854526463387635 -0.00017153857906677567 0.0
0.43836172196803713 -0.00014215681557111243 0.0
0.46826727891218284 -0.00014456534285698036 0.0
0.48831647277517076 -0.00015791464326909112 0.0
0.4985069327957597 -0.00016450830854291212 0.0
0.49878467730943393 -0.00015148350012546307 0.0
0.48906037156558574 -0.00011061988983031882 0.0
0.4692322717076285 -3.8670532575454746e-5 0.0
0.43921490923333567 6.050414932939835e-5 0.0
0.3989741049611716 0.00017091623803684876 0.0
0.3485671027758158 0.00025731171354184977 0.0
0.288172565753694 0.00026169232356145096 0.0
0.21808599056835087 0.00012078553617085683 0.0
0.13862297536907733 -0.00012262575270530435 0.0
0.04976995094859354 -0.00012392358417716683 0.0
0.049475258292156724 -8.877206758581108e-5 0.0
0.13897680204077822 -0.0002765183665574893 0.0
0.2188789040880878 -0.0003820793242152327 0.0
0.28889063182406555 -0.0003630299079262502 0.0
0.3488427706857936 -0.00029441233499985476 0.0
0.3987129287437422 -0.00023803058041795325 0.0
0.4385691698951753 -0.00021542535456345628 0.0
0.4684964988143958 -0.00022049548835481028 0.0
0.4885477843140938 -0.0002346961017979942 0.0
0.4987241385240368 -0.00023905554764340673 0.0
0.4989765063353205 -0.0002187333851976776 0.0
0.4892210271495834 -0.0001648344860273423 0.0
0.4693629653483353 -7.612886022741214e-5 0.0
0.4393273147188197 3.8040558508207606e-5 0.0
0.3990947319319238 0.00015359316933099252 0.0
0.3487358545745056 0.00022871001170811673 0.0
0.2884252826779698 0.00021417646514562658 0.0
0.2184012891680313 8.659837422956139e-5 0.0
0.13884852942527884 -7.797410366740953e-5 0.0
0.04967596831739131 -7.182760505266158e-5 0.0
0.04957615738302205 -4.8616844507091147e-5 0.0
0.13905850285219987 -0.0001832464862588763 0.0
0.21885198274513062 -0.0003017255640390901 0.0
0.28878736856477893 -0.00033027860724793226 0.0
0.3487259397366926 -0.0003059892301120553 0.0
0.39862273019456135 -0.00027896219386150633 0.0
0.4385126116974864 -0.00027236397738932574 0.0
0.46846070735026285 -0.0002846924601640312 0.0
0.488512875077905 -0.00030151410649835545 0.0
0.4986712034221621 -0.0003052051134670799 0.0
0.4988917999445978 -0.00028106556758168266 0.0
0.48909845314589023 -0.00022083953634039375 0.0
0.46920676083564977 -0.00012544620031149502 0.0
0.43915531191859974 -8.005857482960375e-6 0.0
0.3989394342560416 0.00010395165965489053 0.0
0.3486371742206141 0.00017249044076855292 0.0
0.28840848225519944 0.00016378313992835715 0.0
0.2184384357423937 7.663666708358584e-5 0.0
0.1388411222241448 -2.235908261943194e-5 0.0
0.04956357985151819 -2.8205439095417543e-5 0.0
0.04966636480214628 -3.2779435770706906e-5 0.0
0.1391809468853101 -0.00013912476146615382 0.0
0.2189117286065923 -0.00025800497673817297 0.0
0.2887746865280629 -0.000316638874655685 0.0
0.3486760390598613 -0.00032705689405797565 0.0
0.3985711754171145 -0.0003249527239286758 0.0
0.4384745730898351 -0.00033201104338402646 0.0
0.46843124877777553 -0.00035009009206541254 0.0
0.4884771308245769 -0.00036799046223071763 0.0
0.4986131977400112 -0.0003697843393197944 0.0
0.4988001556398452 -0.0003416135627938736 0.0
0.48897011755762954 -0.00027620855729446373 0.0
0.4690500471032543 -0.0001761145751300638 0.0
0.4389920299402711 -5.624125982539072e-5 0.0
0.3988032739357508 5.5836100748619203e-5 0.0
0.3485636745673822 0.00012690406720960396 0.0
0.2884121655051769 0.00013296754355297965 0.0
0.21849161952415078 7.981178082083307e-5 0.0
0.13887990731493008 1.5451870839615315e-5 0.0
0.04955311548757488 -4.26586350322142e-6 0.0
0.04973565052250594 -2.246508532991753e-5 0.0
0.13930324009746264 -0.0001086780507294383 0.0
0.219013468479633 -0.00022500975941914354 0.0
0.2888313998705985 -0.0003062040224066567 0.0
0.3487007105341625 -0.0003475185798842445 0.0
0.39858653025790175 -0.00037005915257239054 0.0
0.4384932654324143 -0.00039155776536628717 0.0
0.4684509430681009 -0.00041596955732911615 0.0
0.4884859928498384 -0.00043495746311338193 0.0
0.49859748573526985 -0.0004347953055956629 0.0
0.49875022530120544 -0.00040314214116512 0.0
0.4888846110871686 -0.0003340629020163244 0.0
0.4689387162383386 -0.00023146575618221492 0.0
0.43887649194923023 -0.00011099755226061776 0.0
0.39871320684320166 1.136091529283502e-6 0.0
0.3485255524184977 7.595247646185282e-5 0.0
0.2884320674816582 9.559557331916154e-5 0.0
0.21854575216051425 6.719404415494217e-5 0.0
0.13892654206303018 2.4431966112449224e-5 0.0
0.04956722664070164 2.9552705099791014e-6 0.0
0.049787567079277256 -1.6515972605873413e-5 0.0
0.13940780575705003 -8.913170896296589e-5 0.0
0.21911720513973695 -0.00020121231594789324 0.0
0.28890845577456453 -0.0002974428379106802 0.0
0.3487526667327064 -0.0003641218389125528 0.0
0.398626482275803 -0.0004104017181821691 0.0
0.43853004053884603 -0.000448105771579613 0.0
0.46848292082948767 -0.000480964751996267 0.0
0.4885034049297809 -0.0005027569914660079 0.0
0.4985884240357912 -0.0005021460685144292 0.0
0.498706439781769 -0.0004687356411965588 0.0
0.48880581780110804 -0.00039814370830222373 0.0
0.46883509246787625 -0.0002954189936870297 0.0
0.4387683977207713 -0.00017629570471974163 0.0
0.39862625501911253 -6.492630237962974e-5 0.0
0.3484800977753165 1.4037647639264459e-5 0.0
0.28843161867609746 4.717199575514637e-5 0.0
0.21857337665508247 4.0735030461444045e-5 0.0
0.1389555329842631 1.7967584977865077e-5 0.0
0.04957955581379526 3.22205884029385e-6 0.0
0.04983097958871655 -1.3881185918806563e-5 0.0
0.1395025032900495 -7.943311096432423e-5 0.0
0.21922186603242516 -0.0001892473606383971 0.0
0.2889975245000862 -0.00029641649410681284 0.0
0.34882058776863956 -0.00038329970792780896 0.0
0.39867915963570244 -0.0004507472772745356 0.0
0.43857304871068004 -0.0005047530184528964 0.0
0.4685149341651991 -0.0005474018936248024 0.0
0.4885165588698087 -0.0005736294446783229 0.0
0.498572863965613 -0.0005741651504647589 0.0
0.4986556088809378 -0.0005405519803003186 0.0
0.4887206223381832 -0.00046990594765098764 0.0
0.46872603242567557 -0.00036808912191728236 0.0
0.4386546078771636 -0.0002503940604718163 0.0
0.3985302871572651 -0.0001386307124570123 0.0
0.34841892329255364 -5.356618989221306e-5 0.0
0.2884084799997471 -5.78398981416349e-6 0.0
0.2185768109877603 9.031018677832495e-6 0.0
0.13896761388891943 6.227931106294837e-6 0.0
0.04958657510339606 1.4402704244865885e-6 0.0
0.04987117761950403 -1.3017842550042263e-5 0.0
0.13959447835739605 -7.629114108999728e-5 0.0
0.21933180331739602 -0.00018738216845685127 0.0
0.2891007005826699 -0.0003047879169936502 0.0
0.3489066249096798 -0.00040907583657965116 0.0
0.3987480645882501 -0.0004955112104185716 0.0
0.43862699563469937 -0.0005652451307261475 0.0
0.4685521678784762 -0.0006183252669940749 0.0
0.4885306046285925 -0.0006501256510020601 0.0
0.4985557805294368 -0.0006529691070699134 0.0
0.4986025371186134 -0.0006201104512146516 0.0
0.4886335618120169 -0.0005499635942828324 0.0
0.46861555329336535 -0.00044888726505144344 0.0
0.43853845198297686 -0.00033140740894716555 0.0
0.3984283043070312 -0.0002170651991576803 0.0
0.3483456126468208 -0.00012361348744083177 0.0
0.28836719400432526 -6.0106020908705834e-5 0.0
0.2185601453446407 -2.442160100624875e-5 0.0
0.1389639207114613 -7.333934797111158e-6 0.0
0.0495869486295572 -9.963708275641685e-7 0.0
0.049910920588240815 -1.3085249672398391e-5 0.0
0.13968769521861654 -7.72994688745989e-5 0.0
0.219448993870081 -0.0001930457666287356 0.0
0.2892180874590722 -0.0003215363219293985 0.0
0.34901084229533647 -0.0004422649058276934 0.0
0.39883462293597954 -0.0005466120064441111 0.0
0.43869480069189587 -0.0006318391056584701 0.0
0.46859848392357206 -0.0006959511155589198 0.0
0.4885497335968743 -0.0007342975845028112 0.0
0.4985412806124813 -0.0007403694369770121 0.0
0.4985509636091043 -0.0007088557305849122 0.0
0.4885477152087106 -0.0006392439689735846 0.0
0.4685057661702391 -0.0005381570756177995 0.0
0.4384209493428896 -0.00041922819947787135 0.0
0.3983205408654981 -0.00029998883300604083 0.0
0.348260230928209 -0.0001959726182456053 0.0
0.28830806820757476 -0.00011555081460606896 0.0
0.21852353004650113 -5.878482777678876e-5 0.0
0.1389437606121671 -2.1590804776518106e-5 0.0
0.04957984620973395 -3.6265925634301013e-6 0.0
0.04995201984582929 -1.3750638014599759e-5 0.0
0.13978518639525664 -8.128580046395072e-5 0.0
0.21957520935392436 -0.0002047164691341963 0.0
0.2893496032208814 -0.00034584654755747307 0.0
0.34913226068923314 -0.00048318371157005086 0.0
0.39893813133695066 -0.0006052696109252016 0.0
0.4387765204879141 -0.0007062287358679933 0.0
0.46865453115457173 -0.0007821269171274245 0.0
0.48857476965104407 -0.0008279869465485548 0.0
0.4985299791878842 -0.0008381048981038416 0.0
0.4985009956595061 -0.0008083206491965467 0.0
0.48846243381471466 -0.0007389775859203867 0.0
0.4683951109859183 -0.0006368020216666092 0.0
0.43829972902609665 -0.0005145316630445934 0.0
0.3982043013993291 -0.0003880087829648466 0.0
0.3481604609301237 -0.00027118225995050846 0.0
0.2882296167752964 -0.0001723268149075743 0.0
0.21846615738270161 -9.373859670569296e-5 0.0
0.13890658199635336 -3.603132688751303e-5 0.0
0.04956505467074519 -6.2488054942124715e-6 0.0
0.049995872759057654 -1.4864856506478547e-5 0.0
0.13988968521388642 -8.767720231398962e-5 0.0
0.21971274962195728 -0.0002216474580754471 0.0
0.2894963148227684 -0.0003774819791366696 0.0
0.3492710054806425 -0.0005324529394320966 0.0
0.39905848613775435 -0.0006728405654297836 0.0
0.43887227807910767 -0.0007901916749038458 0.0
0.4687206556694304 -0.0008787855009215303 0.0
0.4886060160802361 -0.0009331255229660623 0.0
0.49852183363888025 -0.0009480077278854712 0.0
0.49845199776685895 -0.0009201501562640753 0.0
0.4883763205069843 -0.0008505489955660187 0.0
0.46828139647241623 -0.0007459265508968821 0.0
0.4381720196350809 -0.0006181978529340121 0.0
0.39807673664118887 -0.0004818610970226807 0.0
0.3480439795328851 -0.0003498280299055179 0.0
0.28813037253724477 -0.00023075430851773597 0.0
0.21838730434436043 -0.0001292893962005514 0.0
0.13885210136586673 -5.054112923861841e-5 0.0
0.049542595026053036 -8.821623665840262e-6 0.0
0.050043646295992374 -1.6353577213207574e-5 0.0
0.1400036885153563 -9.618148644492737e-5 0.0
0.21986417952916176 -0.0002434873161072574 0.0
0.2896601173499603 -0.0004165018794600124 0.0
0.3494282858529191 -0.000590842183225238 0.0
0.39919658690022586 -0.0007507628412849979 0.0
0.438982971833131 -0.0008855980116137071 0.0
0.46879777268850126 -0.000987988305712268 0.0
0.4886442053270566 -0.0010517966420480987 0.0
0.4985171343982422 -0.00107207154244679 0.0
0.4984035999018195 -0.0010461647914935812 0.0
0.4882882166180891 -0.0009755494064960234 0.0
0.46816269562791896 -0.0008668836272511863 0.0
0.43803536201730164 -0.0007313841501120911 0.0
0.3979352975122287 -0.0005825579534385847 0.0
0.34790862752316654 -0.0004327702762713268 0.0
0.28800883794051335 -0.000291467835544231 0.0
0.2182861186938595 -0.00016579520022349462 0.0
0.13877995536966392 -6.52669290871782e-5 0.0
0.049512453762330697 -1.1382926768828616e-5 0.0
0.05009640080405385 -1.8189795791530456e-5 0.0
0.14012957719485764 -0.00010669520008486181 0.0
0.2200322153112505 -0.0002701729366516872 0.0
0.28984338704165535 -0.00046319713889938705 0.0
0.3496059634282727 -0.0006592364765280628 0.0
0.39935394401071744 -0.0008405302286194828 0.0
0.4391099481700098 -0.000994390597657338 0.0
0.46888707676938185 -0.0011119211500188642 0.0
0.4886902211298742 -0.00118625760215201 0.0
0.49851623105055565 -0.0012125026883385655 0.0
0.4983554253016743 -0.0011884348347228713 0.0
0.4881969214686191 -0.001115863029285609 0.0
0.46803703686603904 -0.0010013632381618831 0.0
0.43788725741146994 -0.0008556112905483913 0.0
0.3977773583576399 -0.0006914689806396208 0.0
0.3477520672175481 -0.0005211936270871944 0.0
0.2878632282059331 -0.0003553831089557448 0.0
0.2181614303110387 -0.00020383568728783727 0.0
0.13868953059354233 -8.047182332759516e-5 0.0
0.049474484901112906 -1.399382741532304e-5 0.0
0.05015518209854443 -2.0377993387039316e-5 0.0
0.1402697618008119 -0.00011925616520116297 0.0
0.22021978453541624 -0.00030189392941458703 0.0
0.29004891979674485 -0.0005181216058309493 0.0
0.3498064169967584 -0.0007387266077492478 0.0
0.39953252582741233 -0.0009437970782569539 0.0
0.43925485208192466 -0.0011186742312276447 0.0
0.46898988560238364 -0.0012529654665556559 0.0
0.48874492661854946 -0.0013390025276747016 0.0
0.49851934831718553 -0.0013717809189343843 0.0
0.4983069033670574 -0.0013493356512288084 0.0
0.4881010067622983 -0.0012737062923893064 0.0
0.4679022180567395 -0.0011514028011105474 0.0
0.43772498179542446 -0.0009927379328982426 0.0
0.39760004796866705 -0.0008102612214348885 0.0
0.3475716586264365 -0.0006165180291248553 0.0
0.2876913960016652 -0.0004235866455030209 0.0
0.21801169358311343 -0.0002440993760509458 0.0
0.13857990105303666 -9.646073045567656e-5 0.0
0.049428380621766875 -1.6718589346220993e-5 0.0
0.05022108650966303 -2.2943725601290732e-5 0.0
0.14042680105847333 -0.0001340088550963769 0.0
0.22043011488176917 -0.00033905665665184256 0.0
0.2902799664395526 -0.0005820997725718181 0.0
0.3500325533564258 -0.0008306728889528887 0.0
0.39973478086649866 -0.001062473861678602 0.0
0.43941967045388197 -0.0012608145339837095 0.0
0.4691076925073781 -0.0014137869199388423 0.0
0.4888092124423937 -0.0015128380934207896 0.0
0.4985266254340159 -0.0015527216310779488 0.0
0.4982573019506801 -0.001531593015623226 0.0
0.4879988409740232 -0.0014516501842693815 0.0
0.4677558172206025 -0.0013193819652244922 0.0
0.4375455777338052 -0.0011449289702282273 0.0
0.39740022595230523 -0.0009408491055573105 0.0
0.3473644296849215 -0.0007203418953557486 0.0
0.28749079849220505 -0.0004972798923291141 0.0
0.21783494854937469 -0.00028733624881374767 0.0
0.1384497912392907 -0.0001135556904870732 0.0
0.04937366161621212 -1.962033123867408e-5 0.0
0.05029531019765743 -2.5928724634453658e-5 0.0
0.1406034998406515 -0.0001511847623708448 0.0
0.2206668199143319 -0.0003822591422154807 0.0
0.29054028141911437 -0.0006562236150350187 0.0
0.35028783421113446 -0.0009367382288096039 0.0
0.39996366974139874 -0.0011987897509015712 0.0
0.43960678089833993 -0.0014235134129548608 0.0
0.469242226809381 -0.0015974106211395483 0.0
0.4888840575893346 -0.0017109527752499983 0.0
0.4985381697318176 -0.001758535760946209 0.0
0.49820576958144197 -0.0017383299109856917 0.0
0.48788861568798614 -0.0016526506838325393 0.0
0.4675951968153901 -0.0015080356256976677 0.0
0.4373458332740016 -0.0013146545091631985 0.0
0.39717444028023025 -0.001085385096227589 0.0
0.3471270229352301 -0.0008344288397713025 0.0
0.2872584441675097 -0.0005777638736048147 0.0
0.21762877592930624 -0.00033434341584260256 0.0
0.13829754768661917 -0.00013208936734933032 0.0
0.04930967283265844 -2.2760775259831774e-5 0.0
0.0503791922411376 -2.9389146754842524e-5 0.0
0.14080300032587464 -0.0001710960110098633 0.0
0.22093399028758623 -0.0004322852282769485 0.0
0.29083418626195934 -0.0007418620846288785 0.0
0.3505763126793095 -0.001058923267298542 0.0
0.4002226897084742 -0.0013553503219523122 0.0
0.43981897677513254 -0.001609878961446171 0.0
0.46939547877389143 -0.0018072937353814207 0.0
0.4889705483483667 -0.0019369856533057858 0.0
0.49855406454719775 -0.001992891273827892 0.0
0.4981513286978634 -0.0019731178223824346 0.0
0.4877683211761638 -0.0018800870448116979 0.0
0.4674174591359134 -0.0017204785084279828 0.0
0.4371222183272404 -0.0015047029205036864 0.0
0.3969188524341499 -0.001246265206320266 0.0
0.34685562100628586 -0.0009607083390877832 0.0
0.28699082977539764 -0.0006664361046428355 0.0
0.2173902522095639 -0.000385961079744541 0.0
0.13812111548540895 -0.00015240420290632477 0.0
0.04923558029976312 -2.6200953662715346e-5 0.0
0.0504742565158897 -3.3396026748728175e-5 0.0
0.14102887404728923 -0.00019413728923094368 0.0
0.2212362964133849 -0.0004901136492691169 0.0
0.2911666543016464 -0.0008406870756210803 0.0
0.35090269178867745 -0.0011996149861399625 0.0
0.4005159133294483 -0.0015352054708743998 0.0
0.44005949316822673 -0.0018235041467287716 0.0
0.4695697153443046 -0.002047406441535342 0.0
0.48906988128143575 -0.0021951026386469166 0.0
0.49857435657487537 -0.0022599802718348307 0.0
0.49809284609696136 -0.002240031776228188 0.0
0.4876356990718852 -0.0021378033288519675 0.0
0.46721938163502214 -0.001960233411003912 0.0
0.43687080626243296 -0.0017181977831479134 0.0
0.39662915351569655 -0.001426137915690203 0.0
0.34654586847493285 -0.0011012796906343116 0.0
0.2866838770553029 -0.0007647920276317942 0.0
0.21711590669000672 -0.00044307329834572035 0.0
0.1379180161578549 -0.00017485343004974523 0.0
0.04915036700447888 -3.0001880337930056e-5 0.0
0.050582256484036234 -3.803689481332516e-5 0.0
0.14128522208159913 -0.00022079426311402147 0.0
0.2215791056372425 -0.0005569400568919993 0.0
0.2915434164329054 -0.0009547151322406108 0.0
0.35127240559762346 -0.0013616500395606291 0.0
0.4008480452909061 -0.0017419313063765478 0.0
0.44033204282940713 -0.002068558639673905 0.0
0.46976749810598434 -0.002322323651586472 0.0
0.4891833631628533 -0.0024900815929706837 0.0
0.49859903686416823 -0.0025645932465566327 0.0
0.4980289946944798 -0.0025437111138048563 0.0
0.4874881855848 -0.0024301541489711626 0.0
0.4669973440234312 -0.0022312624074803788 0.0
0.4365871901150663 -0.0019586174454597383 0.0
0.3963004779608985 -0.0016279156178876824 0.0
0.3461927928124134 -0.0012584186343407588 0.0
0.2863328693048482 -0.0008744288404965405 0.0
0.21680167813919562 -0.0005066107232129109 0.0
0.1376853249759856 -0.00019980342257817473 0.0
0.049052827391877545 -3.422540807604375e-5 0.0
0.050705225973695166 -4.341857266339601e-5 0.0
0.14157678861740974 -0.0002516583661399366 0.0
0.22196861862587 -0.0006342123944206346 0.0
0.2919710885704296 -0.0010863665411072836 0.0
0.3516917209271942 -0.001548396646105624 0.0
0.4012244932865818 -0.001979729166838251 0.0
0.4406408587779044 -0.0023498962410640908 0.0
0.4699916999579695 -0.0026373314213901677 0.0
0.48931240343427246 -0.002827409902826028 0.0
0.4986280104396255 -0.0029122024463658046 0.0
0.4979582022348774 -0.002889425888023446 0.0
0.48732284209785715 -0.0027620540148684592 0.0
0.46674724446790045 -0.002538000680720625 0.0
0.43626639054538113 -0.0022298162401755616 0.0
0.39592731167111617 -0.0018547872388041985 0.0
0.3457907218329026 -0.00143458479897964 0.0
0.2859323856744595 -0.0009970503067314278 0.0
0.21644286956253528 -0.0005775535368948265 0.0
0.13741964651280583 -0.00022763498046770493 0.0
0.04894156065107589 -3.893464851682594e-5 0.0
0.0508455395436097 -4.9671502963340646e-5 0.0
0.14190909523707657 -0.00028744860087570243 0.0
0.2224120311691016 -0.0007236816531098652 0.0
0.2924573242859461 -0.0012385462683992795 0.0
0.3521678589940436 -0.0017638611910798143 0.0
0.401651450712462 -0.002253549467065681 0.0
0.44099073820293466 -0.002673184701249118 0.0
0.4702455141931101 -0.002998551827634543 0.0
0.48945849272298897 -0.0032133959708291757 0.0
0.49866104856248555 -0.0033090550408840544 0.0