# vtk DataFile Version 3.0
XCALibre.jl simulation data
ASCII
DATASET UNSTRUCTURED_GRID
POINTS 7441 double
0.0 0.0 0.0
0.2 0.0 0.0
0.2 0.1 0.0
0.0 0.1 0.0
1.0 0.1 0.0
1.0 0.0 0.0
0.2 -0.1 0.0
1.0 -0.1 0.0
0.005 0.0 0.0
0.01 0.0 0.0
0.015 0.0 0.0
0.02 0.0 0.0
0.025 0.0 0.0
0.03 0.0 0.0
0.035 0.0 0.0
0.04 0.0 0.0
0.045 0.0 0.0
0.05 0.0 0.0
0.055 0.0 0.0
0.06 0.0 0.0
0.065 0.0 0.0
0.07 0.0 0.0
0.075 0.0 0.0
0.08 0.0 0.0
0.085 0.0 0.0
0.09 0.0 0.0
0.095 0.0 0.0
0.1 0.0 0.0
0.105 0.0 0.0
0.11 0.0 0.0
0.115 0.0 0.0
0.12 0.0 0.0
0.125 0.0 0.0
0.13 0.0 0.0
0.135 0.0 0.0
0.14 0.0 0.0
0.145 0.0 0.0
0.15 0.0 0.0
0.155 0.0 0.0
0.16 0.0 0.0
0.165 0.0 0.0
0.17 0.0 0.0
0.17500000000000002 0.0 0.0
0.18 0.0 0.0
0.185 0.0 0.0
0.19 0.0 0.0
0.195 0.0 0.0
0.2 0.095 0.0
0.2 0.09 0.0
0.2 0.085 0.0
0.2 0.08 0.0
0.2 0.075 0.0
0.2 0.07 0.0
0.2 0.065 0.0
0.2 0.06 0.0
0.2 0.055 0.0
0.2 0.05 0.0
0.2 0.045 0.0
0.2 0.04 0.0
0.2 0.035 0.0
0.2 0.03 0.0
0.2 0.025 0.0
0.2 0.02 0.0
0.2 0.015 0.0
0.2 0.01 0.0
0.2 0.005 0.0
0.005 0.1 0.0
0.01 0.1 0.0
0.015 0.1 0.0
0.02 0.1 0.0
0.025 0.1 0.0
0.03 0.1 0.0
0.035 0.1 0.0
0.04 0.1 0.0
0.045 0.1 0.0
0.05 0.1 0.0
0.055 0.1 0.0
0.06 0.1 0.0
0.065 0.1 0.0
0.07 0.1 0.0
0.075 0.1 0.0
0.08 0.1 0.0
0.085 0.1 0.0
0.09 0.1 0.0
0.095 0.1 0.0
0.1 0.1 0.0
0.105 0.1 0.0
0.11 0.1 0.0
0.115 0.1 0.0
0.12 0.1 0.0
0.125 0.1 0.0
0.13 0.1 0.0
0.135 0.1 0.0
0.14 0.1 0.0
0.145 0.1 0.0
0.15 0.1 0.0
0.155 0.1 0.0
0.16 0.1 0.0
0.165 0.1 0.0
0.17 0.1 0.0
0.17500000000000002 0.1 0.0
0.18 0.1 0.0
0.185 0.1 0.0
0.19 0.1 0.0
0.195 0.1 0.0
0.0 0.005 0.0
0.0 0.01 0.0
0.0 0.015 0.0
0.0 0.02 0.0
0.0 0.025 0.0
0.0 0.03 0.0
0.0 0.035 0.0
0.0 0.04 0.0
0.0 0.045 0.0
0.0 0.05 0.0
0.0 0.055 0.0
0.0 0.06 0.0
0.0 0.065 0.0
0.0 0.07 0.0
0.0 0.075 0.0
0.0 0.08 0.0
0.0 0.085 0.0
0.0 0.09 0.0
0.0 0.095 0.0
1.0 0.095 0.0
1.0 0.09 0.0
1.0 0.085 0.0
1.0 0.08 0.0
1.0 0.075 0.0
1.0 0.07 0.0
1.0 0.065 0.0
1.0 0.06 0.0
1.0 0.055 0.0
1.0 0.05 0.0
1.0 0.045 0.0
1.0 0.04 0.0
1.0 0.035 0.0
1.0 0.03 0.0
1.0 0.025 0.0
1.0 0.02 0.0
1.0 0.015 0.0
1.0 0.01 0.0
1.0 0.005 0.0
0.20500000000000002 0.1 0.0
0.21 0.1 0.0
0.215 0.1 0.0
0.22 0.1 0.0
0.225 0.1 0.0
0.23 0.1 0.0
0.23500000000000001 0.1 0.0
0.24 0.1 0.0
0.245 0.1 0.0
0.25 0.1 0.0
0.255 0.1 0.0
0.26 0.1 0.0
0.265 0.1 0.0
0.27 0.1 0.0
0.275 0.1 0.0
0.28 0.1 0.0
0.28500000000000003 0.1 0.0
0.29 0.1 0.0
0.295 0.1 0.0
0.3 0.1 0.0
0.305 0.1 0.0
0.31 0.1 0.0
0.315 0.1 0.0
0.32 0.1 0.0
0.325 0.1 0.0
0.33 0.1 0.0
0.335 0.1 0.0
0.34 0.1 0.0
0.34500000000000003 0.1 0.0
0.35000000000000003 0.1 0.0
0.355 0.1 0.0
0.36 0.1 0.0
0.365 0.1 0.0
0.37 0.1 0.0
0.375 0.1 0.0
0.38 0.1 0.0
0.385 0.1 0.0
0.39 0.1 0.0
0.395 0.1 0.0
0.4 0.1 0.0
0.405 0.1 0.0
0.41000000000000003 0.1 0.0
0.41500000000000004 0.1 0.0
0.42 0.1 0.0
0.425 0.1 0.0
0.43 0.1 0.0
0.435 0.1 0.0
0.44 0.1 0.0
0.445 0.1 0.0
0.45 0.1 0.0
0.455 0.1 0.0
0.46 0.1 0.0
0.465 0.1 0.0
0.47000000000000003 0.1 0.0
0.47500000000000003 0.1 0.0
0.48 0.1 0.0
0.485 0.1 0.0
0.49 0.1 0.0
0.495 0.1 0.0
0.5 0.1 0.0
0.505 0.1 0.0
0.51 0.1 0.0
0.515 0.1 0.0
0.52 0.1 0.0
0.525 0.1 0.0
0.53 0.1 0.0
0.535 0.1 0.0
0.54 0.1 0.0
0.545 0.1 0.0
0.55 0.1 0.0
0.555 0.1 0.0
0.56 0.1 0.0
0.5650000000000001 0.1 0.0
0.5700000000000001 0.1 0.0
0.5750000000000001 0.1 0.0
0.58 0.1 0.0
0.585 0.1 0.0
0.59 0.1 0.0
0.595 0.1 0.0
0.6 0.1 0.0
0.605 0.1 0.0
0.61 0.1 0.0
0.615 0.1 0.0
0.62 0.1 0.0
0.625 0.1 0.0
0.63 0.1 0.0
0.635 0.1 0.0
0.64 0.1 0.0
0.645 0.1 0.0
0.65 0.1 0.0
0.655 0.1 0.0
0.66 0.1 0.0
0.665 0.1 0.0
0.67 0.1 0.0
0.675 0.1 0.0
0.68 0.1 0.0
0.685 0.1 0.0
0.6900000000000001 0.1 0.0
0.6950000000000001 0.1 0.0
0.7000000000000001 0.1 0.0
0.705 0.1 0.0
0.71 0.1 0.0
0.715 0.1 0.0
0.72 0.1 0.0
0.725 0.1 0.0
0.73 0.1 0.0
0.735 0.1 0.0
0.74 0.1 0.0
0.745 0.1 0.0
0.75 0.1 0.0
0.755 0.1 0.0
0.76 0.1 0.0
0.765 0.1 0.0
0.77 0.1 0.0
0.775 0.1 0.0
0.78 0.1 0.0
0.785 0.1 0.0
0.79 0.1 0.0
0.795 0.1 0.0
0.8 0.1 0.0
0.805 0.1 0.0
0.81 0.1 0.0
0.8150000000000001 0.1 0.0
0.8200000000000001 0.1 0.0
0.8250000000000001 0.1 0.0
0.8300000000000001 0.1 0.0
0.835 0.1 0.0
0.84 0.1 0.0
0.845 0.1 0.0
0.85 0.1 0.0
0.855 0.1 0.0
0.86 0.1 0.0
0.865 0.1 0.0
0.87 0.1 0.0
0.875 0.1 0.0
0.88 0.1 0.0
0.885 0.1 0.0
0.89 0.1 0.0
0.895 0.1 0.0
0.9 0.1 0.0
0.905 0.1 0.0
0.91 0.1 0.0
0.915 0.1 0.0
0.92 0.1 0.0
0.925 0.1 0.0
0.93 0.1 0.0
0.935 0.1 0.0
0.9400000000000001 0.1 0.0
0.9450000000000001 0.1 0.0
0.9500000000000001 0.1 0.0
0.9550000000000001 0.1 0.0
0.96 0.1 0.0
0.965 0.1 0.0
0.97 0.1 0.0
0.975 0.1 0.0
0.98 0.1 0.0
0.985 0.1 0.0
0.99 0.1 0.0
0.995 0.1 0.0
0.995 0.0 0.0
0.99 0.0 0.0
0.985 0.0 0.0
0.98 0.0 0.0
0.975 0.0 0.0
0.97 0.0 0.0
0.965 0.0 0.0
0.96 0.0 0.0
0.9550000000000001 0.0 0.0
0.9500000000000001 0.0 0.0
0.9450000000000001 0.0 0.0
0.9400000000000001 0.0 0.0
0.935 0.0 0.0
0.93 0.0 0.0
0.925 0.0 0.0
0.92 0.0 0.0
0.915 0.0 0.0
0.91 0.0 0.0
0.905 0.0 0.0
0.9 0.0 0.0
0.895 0.0 0.0
0.89 0.0 0.0
0.885 0.0 0.0
0.88 0.0 0.0
0.875 0.0 0.0
0.87 0.0 0.0
0.865 0.0 0.0
0.86 0.0 0.0
0.855 0.0 0.0
0.85 0.0 0.0
0.845 0.0 0.0
0.84 0.0 0.0
0.835 0.0 0.0
0.8300000000000001 0.0 0.0
0.8250000000000001 0.0 0.0
0.8200000000000001 0.0 0.0
0.8150000000000001 0.0 0.0
0.81 0.0 0.0
0.805 0.0 0.0
0.8 0.0 0.0
0.795 0.0 0.0
0.79 0.0 0.0
0.785 0.0 0.0
0.78 0.0 0.0
0.775 0.0 0.0
0.77 0.0 0.0
0.765 0.0 0.0
0.76 0.0 0.0
0.755 0.0 0.0
0.75 0.0 0.0
0.745 0.0 0.0
0.74 0.0 0.0
0.735 0.0 0.0
0.73 0.0 0.0
0.725 0.0 0.0
0.72 0.0 0.0
0.715 0.0 0.0
0.71 0.0 0.0
0.705 0.0 0.0
0.7000000000000001 0.0 0.0
0.6950000000000001 0.0 0.0
0.6900000000000001 0.0 0.0
0.685 0.0 0.0
0.68 0.0 0.0
0.675 0.0 0.0
0.67 0.0 0.0
0.665 0.0 0.0
0.66 0.0 0.0
0.655 0.0 0.0
0.65 0.0 0.0
0.645 0.0 0.0
0.64 0.0 0.0
0.635 0.0 0.0
0.63 0.0 0.0
0.625 0.0 0.0
0.62 0.0 0.0
0.615 0.0 0.0
0.61 0.0 0.0
0.605 0.0 0.0
0.6 0.0 0.0
0.595 0.0 0.0
0.59 0.0 0.0
0.585 0.0 0.0
0.58 0.0 0.0
0.5750000000000001 0.0 0.0
0.5700000000000001 0.0 0.0
0.5650000000000001 0.0 0.0
0.56 0.0 0.0
0.555 0.0 0.0
0.55 0.0 0.0
0.545 0.0 0.0
0.54 0.0 0.0
0.535 0.0 0.0
0.53 0.0 0.0
0.525 0.0 0.0
0.52 0.0 0.0
0.515 0.0 0.0
0.51 0.0 0.0
0.505 0.0 0.0
0.5 0.0 0.0
0.495 0.0 0.0
0.49 0.0 0.0
0.485 0.0 0.0
0.48 0.0 0.0
0.47500000000000003 0.0 0.0
0.47000000000000003 0.0 0.0
0.465 0.0 0.0
0.46 0.0 0.0
0.455 0.0 0.0
0.45 0.0 0.0
0.445 0.0 0.0
0.44 0.0 0.0
0.435 0.0 0.0
0.43 0.0 0.0
0.425 0.0 0.0
0.42 0.0 0.0
0.41500000000000004 0.0 0.0
0.41000000000000003 0.0 0.0
0.405 0.0 0.0
0.4 0.0 0.0
0.395 0.0 0.0
0.39 0.0 0.0
0.385 0.0 0.0
0.38 0.0 0.0
0.375 0.0 0.0
0.37 0.0 0.0
0.365 0.0 0.0
0.36 0.0 0.0
0.355 0.0 0.0
0.35000000000000003 0.0 0.0
0.34500000000000003 0.0 0.0
0.34 0.0 0.0
0.335 0.0 0.0
0.33 0.0 0.0
0.325 0.0 0.0
0.32 0.0 0.0
0.315 0.0 0.0
0.31 0.0 0.0
0.305 0.0 0.0
0.3 0.0 0.0
0.295 0.0 0.0
0.29 0.0 0.0
0.28500000000000003 0.0 0.0
0.28 0.0 0.0
0.275 0.0 0.0
0.27 0.0 0.0
0.265 0.0 0.0
0.26 0.0 0.0
0.255 0.0 0.0
0.25 0.0 0.0
0.245 0.0 0.0
0.24 0.0 0.0
0.23500000000000001 0.0 0.0
0.23 0.0 0.0
0.225 0.0 0.0
0.22 0.0 0.0
0.215 0.0 0.0
0.21 0.0 0.0
0.20500000000000002 0.0 0.0
0.2 -0.005 0.0
0.2 -0.01 0.0
0.2 -0.015 0.0
0.2 -0.02 0.0
0.2 -0.025 0.0
0.2 -0.03 0.0
0.2 -0.035 0.0
0.2 -0.04 0.0
0.2 -0.045 0.0
0.2 -0.05 0.0
0.2 -0.055 0.0
0.2 -0.06 0.0
0.2 -0.065 0.0
0.2 -0.07 0.0
0.2 -0.075 0.0
0.2 -0.08 0.0
0.2 -0.085 0.0
0.2 -0.09 0.0
0.2 -0.095 0.0
0.20500000000000002 -0.1 0.0
0.21 -0.1 0.0
0.215 -0.1 0.0
0.22 -0.1 0.0
0.225 -0.1 0.0
0.23 -0.1 0.0
0.23500000000000001 -0.1 0.0
0.24 -0.1 0.0
0.245 -0.1 0.0
0.25 -0.1 0.0
0.255 -0.1 0.0
0.26 -0.1 0.0
0.265 -0.1 0.0
0.27 -0.1 0.0
0.275 -0.1 0.0
0.28 -0.1 0.0
0.28500000000000003 -0.1 0.0
0.29 -0.1 0.0
0.295 -0.1 0.0
0.3 -0.1 0.0
0.305 -0.1 0.0
0.31 -0.1 0.0
0.315 -0.1 0.0
0.32 -0.1 0.0
0.325 -0.1 0.0
0.33 -0.1 0.0
0.335 -0.1 0.0
0.34 -0.1 0.0
0.34500000000000003 -0.1 0.0
0.35000000000000003 -0.1 0.0
0.355 -0.1 0.0
0.36 -0.1 0.0
0.365 -0.1 0.0
0.37 -0.1 0.0
0.375 -0.1 0.0
0.38 -0.1 0.0
0.385 -0.1 0.0
0.39 -0.1 0.0
0.395 -0.1 0.0
0.4 -0.1 0.0
0.405 -0.1 0.0
0.41000000000000003 -0.1 0.0
0.41500000000000004 -0.1 0.0
0.42 -0.1 0.0
0.425 -0.1 0.0
0.43 -0.1 0.0
0.435 -0.1 0.0
0.44 -0.1 0.0
0.445 -0.1 0.0
0.45 -0.1 0.0
0.455 -0.1 0.0
0.46 -0.1 0.0
0.465 -0.1 0.0
0.47000000000000003 -0.1 0.0
0.47500000000000003 -0.1 0.0
0.48 -0.1 0.0
0.485 -0.1 0.0
0.49 -0.1 0.0
0.495 -0.1 0.0
0.5 -0.1 0.0
0.505 -0.1 0.0
0.51 -0.1 0.0
0.515 -0.1 0.0
0.52 -0.1 0.0
0.525 -0.1 0.0
0.53 -0.1 0.0
0.535 -0.1 0.0
0.54 -0.1 0.0
0.545 -0.1 0.0
0.55 -0.1 0.0
0.555 -0.1 0.0
0.56 -0.1 0.0
0.5650000000000001 -0.1 0.0
0.5700000000000001 -0.1 0.0
0.5750000000000001 -0.1 0.0
0.58 -0.1 0.0
0.585 -0.1 0.0
0.59 -0.1 0.0
0.595 -0.1 0.0
0.6 -0.1 0.0
0.605 -0.1 0.0
0.61 -0.1 0.0
0.615 -0.1 0.0
0.62 -0.1 0.0
0.625 -0.1 0.0
0.63 -0.1 0.0
0.635 -0.1 0.0
0.64 -0.1 0.0
0.645 -0.1 0.0
0.65 -0.1 0.0
0.655 -0.1 0.0
0.66 -0.1 0.0
0.665 -0.1 0.0
0.67 -0.1 0.0
0.675 -0.1 0.0
0.68 -0.1 0.0
0.685 -0.1 0.0
0.6900000000000001 -0.1 0.0
0.6950000000000001 -0.1 0.0
0.7000000000000001 -0.1 0.0
0.705 -0.1 0.0
0.71 -0.1 0.0
0.715 -0.1 0.0
0.72 -0.1 0.0
0.725 -0.1 0.0
0.73 -0.1 0.0
0.735 -0.1 0.0
0.74 -0.1 0.0
0.745 -0.1 0.0
0.75 -0.1 0.0
0.755 -0.1 0.0
0.76 -0.1 0.0
0.765 -0.1 0.0
0.77 -0.1 0.0
0.775 -0.1 0.0
0.78 -0.1 0.0
0.785 -0.1 0.0
0.79 -0.1 0.0
0.795 -0.1 0.0
0.8 -0.1 0.0
0.805 -0.1 0.0
0.81 -0.1 0.0
0.8150000000000001 -0.1 0.0
0.8200000000000001 -0.1 0.0
0.8250000000000001 -0.1 0.0
0.8300000000000001 -0.1 0.0
0.835 -0.1 0.0
0.84 -0.1 0.0
0.845 -0.1 0.0
0.85 -0.1 0.0
0.855 -0.1 0.0
0.86 -0.1 0.0
0.865 -0.1 0.0
0.87 -0.1 0.0
0.875 -0.1 0.0
0.88 -0.1 0.0
0.885 -0.1 0.0
0.89 -0.1 0.0
0.895 -0.1 0.0
0.9 -0.1 0.0
0.905 -0.1 0.0
0.91 -0.1 0.0
0.915 -0.1 0.0
0.92 -0.1 0.0
0.925 -0.1 0.0
0.93 -0.1 0.0
0.935 -0.1 0.0
0.9400000000000001 -0.1 0.0
0.9450000000000001 -0.1 0.0
0.9500000000000001 -0.1 0.0
0.9550000000000001 -0.1 0.0
0.96 -0.1 0.0
0.965 -0.1 0.0
0.97 -0.1 0.0
0.975 -0.1 0.0
0.98 -0.1 0.0
0.985 -0.1 0.0
0.99 -0.1 0.0
0.995 -0.1 0.0
1.0 -0.095 0.0
1.0 -0.09 0.0
1.0 -0.085 0.0
1.0 -0.08 0.0
1.0 -0.075 0.0
1.0 -0.07 0.0
1.0 -0.065 0.0
1.0 -0.06 0.0
1.0 -0.055 0.0
[...]
CELL_DATA 7200
VECTORS U double
0.049413348832573936 0.00043305411199457235 0.0
0.1371607604603566 0.00047892434341588615 0.0
0.21671514300720085 -7.240630135900761e-5 0.0
0.28743340600474176 -0.00027448194058364453 0.0
0.34834472399298055 -0.00022528966489461172 0.0
0.3988682137019773 -0.00011057567383554459 0.0
0.4388490353062209 -1.6549922235809066e-5 0.0
0.4684242853076947 3.131226963582316e-5 0.0
0.48786228928130343 3.4866786745593194e-5 0.0
0.4974314811623279 7.80890410226044e-6 0.0
0.49731223630313837 -3.2308440164506036e-5 0.0
0.48754971889678733 -6.698741141502171e-5 0.0
0.46804466951638163 -7.764534464006018e-5 0.0
0.43858029801477455 -4.673773743695167e-5 0.0
0.39888536413428743 3.8599856927872954e-5 0.0
0.34873495331813154 0.0001791583484838772 0.0
0.2880840325306445 0.0003431114996942468 0.0
0.21721532117292738 0.0004343937551824894 0.0
0.13684740420323344 0.00032017214094226683 0.0
0.048090258589482286 9.74910056042136e-5 0.0
0.050131390573802954 0.0003071120646441132 0.0
0.13848676925267311 0.00035816494933300387 0.0
0.21787128525525873 -0.00014726017304812175 0.0
0.2882455349062701 -0.00043653842433596577 0.0
0.3489172890712786 -0.0004266871977657894 0.0
0.3993410923835204 -0.0002758415268665954 0.0
0.4393103095299223 -0.00011721072355100458 0.0
0.4689090435908135 -1.8316444272379558e-5 0.0
0.48837482197601584 6.383644585099054e-6 0.0
0.49796223759429886 -2.5957582412514886e-5 0.0
0.49784664243927423 -8.316149804319382e-5 0.0
0.4880722178003074 -0.0001276309447065159 0.0
0.46854152496971574 -0.00012244052285393623 0.0
0.4390445377440473 -3.799235280084243e-5 0.0
0.39932757382598283 0.00013644547604554672 0.0
0.34920153271253523 0.00037444526050203633 0.0
0.2886714447990979 0.0005901712170244074 0.0
0.21804825638765324 0.0006343044843666703 0.0
0.13794678053557285 0.00040142410020227616 0.0
0.04900375291116018 0.00010518788733025962 0.0
0.049809015354913055 0.000158233241147854 0.0
0.1388183352188741 0.00018238224861878702 0.0
0.21835475970458643 -0.0001569189579873178 0.0
0.2885696659427006 -0.00041643720202281994 0.0
0.34906729156538735 -0.0004530994531494211 0.0
0.3994180463212715 -0.0003404034342960067 0.0
0.43940583239382336 -0.0001921997416605747 0.0
0.46906733424886765 -8.771093836144096e-5 0.0
0.4885977534700936 -5.4612369808179594e-5 0.0
0.49822603298753243 -8.153710885625066e-5 0.0
0.49811548384033194 -0.0001347509348758366 0.0
0.48830742206945205 -0.0001715188636744292 0.0
0.46870936540276875 -0.00015083201421931967 0.0
0.43912653367719034 -4.471920956505656e-5 0.0
0.3993353786918703 0.00014675527502017426 0.0
0.34919171354002176 0.0003777543387069015 0.0
0.28874584255475866 0.0005496111173309535 0.0
0.21830048697474613 0.000536592580029001 0.0
0.13833329625352891 0.0003006464536244109 0.0
0.04921657910457254 6.652872891584646e-5 0.0
0.04963415210942057 5.8113309401913735e-5 0.0
0.1388985046128336 3.449923481799483e-5 0.0
0.21853023073620592 -0.00019456298765228435 0.0
0.28863018784979494 -0.00039923223928834084 0.0
0.3489712277495849 -0.0004517187752799928 0.0
0.39923704710979996 -0.00037542248941471523 0.0
0.4392289777940569 -0.00025331142410054287 0.0
0.46894898652387645 -0.00015842329625761993 0.0
0.4885479289235869 -0.00012439391707324863 0.0
0.4982215588687567 -0.0001455995032737498 0.0
0.4981153568162918 -0.00019068279920094768 0.0
0.48826651081169165 -0.00021730306637833302 0.0
0.4685913614226598 -0.00018576382639905198 0.0
0.43891851113413155 -7.313749804057861e-5 0.0
0.39906314965868667 0.0001113928919303461 0.0
0.34892827444547597 0.00031609309171742395 0.0
0.2885958298513902 0.0004505281433098174 0.0
0.2183364367205871 0.00042173802368774253 0.0
0.13850215856711176 0.0002276229401048822 0.0
0.049317150305648365 4.961081544913035e-5 0.0
0.04962387340276671 6.235361637610233e-6 0.0
0.13902040070829605 -5.760115430486506e-5 0.0
0.21870097562894844 -0.00023835098081848705 0.0
0.2887164372952015 -0.00040573489993554366 0.0
0.34892677557012064 -0.00046395334557820713 0.0
0.39910389512999306 -0.00041483930824395046 0.0
0.439080796208492 -0.0003176017879145322 0.0
0.4688397085000609 -0.000235298801078771 0.0
0.4884937431904906 -0.0002021843629601763 0.0
0.49820553729719325 -0.0002166744272943046 0.0
0.498101037327442 -0.000250972486779337 0.0
0.4882130275782056 -0.0002655363785953616 0.0
0.4684686407472241 -0.00022410652956930005 0.0
0.4387226438934642 -0.00010894659075018107 0.0
0.3988289473756901 6.506836946022626e-5 0.0
0.34872959425875055 0.000245387101776414 0.0
0.28851704737882977 0.0003537270109618691 0.0
0.21841568988015708 0.0003245412244470117 0.0
0.13867530430743513 0.00017267335666132673 0.0
0.04942574962724828 3.7968611453420976e-5 0.0
0.04966578214441891 -1.335828888583616e-5 0.0
0.13915642218951305 -9.607346610196653e-5 0.0
0.21887030054152512 -0.00025764386601265867 0.0
0.28883064755173665 -0.0004071412617789462 0.0
0.34894444164766225 -0.00047406171031462414 0.0
0.39904648573981105 -0.0004514445640196359 0.0
0.43900230632341697 -0.00038091830294733687 0.0
0.4687863524061223 -0.00031487404353353564 0.0
0.4884827363542719 -0.000285401660347949 0.0
0.49822444269562777 -0.00029384886117430275 0.0
0.498118490586733 -0.00031676789062382824 0.0
0.4881934897480381 -0.0003191169652739513 0.0
0.46838789104364204 -0.00026953128436418334 0.0
0.438582008372858 -0.0001554259248679493 0.0
0.3986636728802563 5.075042061758259e-6 0.0
0.3486023171409831 0.0001621564437294204 0.0
0.2884883258718063 0.0002515087126909597 0.0
0.2185010272912342 0.0002298668119659971 0.0
0.1388163961694067 0.00011938192059870144 0.0
0.04950835194778474 2.523406314272725e-5 0.0
0.049720262720170556 -1.887719012906937e-5 0.0
0.139286026887665 -0.00010639575618731151 0.0
0.21902236312457152 -0.00025815281716698603 0.0
0.28894216166579545 -0.0003999879152407205 0.0
0.3489819389605878 -0.00047804263491548507 0.0
0.39902125792269816 -0.0004818920567151232 0.0
0.4389538169906131 -0.0004397757521699589 0.0
0.4687527258102752 -0.0003933383247392262 0.0
0.4884803110032564 -0.00037097143151776905 0.0
0.49824396742482707 -0.0003759461282473673 0.0
0.49813327079627057 -0.0003893160905503114 0.0
0.4881730974544514 -0.00038137213842712105 0.0
0.46831306224867336 -0.00032624038197177246 0.0
0.43845714494707355 -0.00021593648337630314 0.0
0.39852162179990186 -6.969139543730343e-5 0.0
0.3484944324371895 6.846247210864503e-5 0.0
0.28845844036924445 0.0001482942827030423 0.0
0.21855477796420406 0.00014243205646098317 0.0
0.13890801459545343 7.300883232685608e-5 0.0
0.04956008434300119 1.4591391569392436e-5 0.0
0.04977730349493973 -1.9614824716817135e-5 0.0
0.13941088963123685 -0.00010643466771125638 0.0
0.2191652147926552 -0.0002525585608057965 0.0
0.2890527265885281 -0.0003925826121634903 0.0
0.34903204731629733 -0.00048286551363560363 0.0
0.399016270819242 -0.000511599877232497 0.0
0.4389229360914665 -0.0004971679926877638 0.0
0.46872705001108544 -0.00047154205952710664 0.0
0.4884748032999886 -0.00045873136625005945 0.0
0.49825213850464734 -0.0004629267278392114 0.0
0.49813318652721933 -0.0004692216093312218 0.0
0.48813965391870806 -0.0004531938005139335 0.0
0.4682316776236232 -0.0003942039449222796 0.0
0.4383343204408394 -0.0002878617318577609 0.0
0.3983870601640627 -0.00015288144326074918 0.0
0.3483900474281212 -2.6469626213834964e-5 0.0
0.28841628498500826 5.299324580298048e-5 0.0
0.21857600337840055 6.79313199990972e-5 0.0
0.1389585496886414 3.627026970124695e-5 0.0
0.0495886567583935 6.8668564748878495e-6 0.0
0.04983339155288929 -1.8954393752406015e-5 0.0
0.13953304090175833 -0.00010374993208277393 0.0
0.219306570689032 -0.00024726773275693067 0.0
0.28916998497269303 -0.0003896786604377923 0.0
0.3490997420593636 -0.0004933009025472768 0.0
0.39903510134763687 -0.000545361840466022 0.0
0.43891381624654296 -0.0005569892727040705 0.0
0.46871462238458417 -0.0005520716017258521 0.0
0.48847214462826005 -0.0005501826796229797 0.0
0.498254925875577 -0.0005556644792870202 0.0
0.4981239563343063 -0.0005569687767302991 0.0
0.4880983938938666 -0.0005344614680432582 0.0
0.4681478857800468 -0.00047209897734503206 0.0
0.43821558330432503 -0.00036810277055341256 0.0
0.39825932697332495 -0.0002397933692042203 0.0
0.34828694870719024 -0.00011801054927080334 0.0
0.2883613298531427 -3.2202129325052045e-5 0.0
0.2185689696287565 5.490924172089646e-6 0.0
0.13897617173214602 7.221603951115357e-6 0.0
0.04959981343425966 1.1785558616287923e-6 0.0
0.049887705818297955 -1.816692797243084e-5 0.0
0.13965348478243148 -0.00010146059143510572 0.0
0.21944970153762647 -0.00024499025214476795 0.0
0.28929701966784366 -0.00039292359400968074 0.0
0.3491866648929209 -0.0005110320907748224 0.0
0.39907884308811575 -0.000585480445123846 0.0
0.4389284330503703 -0.0006218012989762645 0.0
0.4687189072204407 -0.0006372032556924183 0.0
0.4884769361772111 -0.000647077520518751 0.0
0.4982573577888101 -0.0006554164813931635 0.0
0.49811035907327217 -0.0006533621239741213 0.0
0.4880531680835975 -0.0006254278497085972 0.0
0.46806377233567914 -0.0005594593589210737 0.0
0.4381004327542584 -0.00045553211691725596 0.0
0.3981352583084003 -0.00032925404219763613 0.0
0.34818079470173874 -0.00020608123582754962 0.0
0.28829102913484095 -0.00010910650098600134 0.0
0.21853529381972397 -4.792351342243381e-5 0.0
0.13896576102360203 -1.6513381698409136e-5 0.0
0.049597073477918745 -3.230487754730041e-6 0.0
0.04994091673155411 -1.7756192733189465e-5 0.0
0.13977395916375562 -0.00010101623232182852 0.0
0.2195969381412163 -0.0002472614360160471 0.0
0.28943520417584656 -0.00040339459400482987 0.0
0.3492924640111085 -0.0005371686991490412 0.0
0.39914612459439264 -0.0006335821560338067 0.0
0.4389656884239594 -0.0006936602104500809 0.0
0.46873985715455124 -0.0007290357309173607 0.0
0.4884901249438009 -0.0007512761331186102 0.0
0.4982608165676898 -0.0007637089661688645 0.0
0.49809350255173784 -0.0007595635832638824 0.0
0.4880040655503436 -0.0007268358486059816 0.0
0.46797768384865623 -0.000656585497442264 0.0
0.43798506167453366 -0.0005501975182696436 0.0
0.39800937407378784 -0.0004215885626653525 0.0
0.34806617989200506 -0.00029192918100596436 0.0
0.2882024746910993 -0.00018005821840273188 0.0
0.21847590942036427 -9.496029268991787e-5 0.0
0.138930801367596 -3.6623382971045465e-5 0.0
0.049582844866341215 -6.807825948359849e-6 0.0
0.04999428891787888 -1.787354517023541e-5 0.0
0.13989691210937777 -0.00010301049118298246 0.0
0.2197509793897794 -0.00025495254671649886 0.0
0.2895862923421776 -0.00042200921565012286 0.0
0.3494173374411906 -0.0005728931673782993 0.0
0.3992360166306658 -0.0006913561951652713 0.0
0.43902452156734656 -0.0007746835857169697 0.0
0.4687770096479016 -0.0008298179242182541 0.0
0.4885119417797089 -0.0008648891264925935 0.0
0.49826582817604315 -0.0008823681372198186 0.0
0.4980735883830688 -0.0008770463769717096 0.0
0.4879503018885123 -0.0008397668110639 0.0
0.46788730535569606 -0.000764198645295806 0.0
0.4378654990015269 -0.0006526694636598114 0.0
0.39787673441678306 -0.0005176347225352515 0.0
0.34793875983405637 -0.00037707097487647514 0.0
0.28809362734523436 -0.00024723956899518263 0.0
0.2183916954396728 -0.00013779038167452534 0.0
0.138873841135544 -5.437632157947015e-5 0.0
0.04955876206915214 -9.86380227304347e-6 0.0
0.05004923962802144 -1.852994125816288e-5 0.0
0.1400250994186872 -0.00010761201282616695 0.0
0.21991482938902787 -0.0002684692830135087 0.0
0.28975254386531707 -0.0004494195636203949 0.0
0.3495623064393825 -0.0006192851111084618 0.0
0.399348553652874 -0.0007604577771371465 0.0
0.4391046926931423 -0.0008670216682432053 0.0
0.46883044603216245 -0.0009419355624275514 0.0
0.4885429212844473 -0.00099026350800589 0.0
0.4982730779391211 -0.0010135144985432554 0.0
0.4980509152192292 -0.001007603415080662 0.0
0.48789121354690224 -0.0009656542006397262 0.0
0.4677905988803861 -0.0008834381807292149 0.0
0.43773835379192955 -0.0007640060111413536 0.0
0.3977332909115263 -0.000618696378178088 0.0
0.34779509659367386 -0.0004632972703510361 0.0
0.28796285484841605 -0.00031279215181399345 0.0
0.2182831135512886 -0.00017831233812652246 0.0
0.13879647053842153 -7.079703395078659e-5 0.0
0.049525822557853816 -1.2633113428987522e-5 0.0
0.05010719457506913 -1.970267437665857e-5 0.0
0.14016140835871824 -0.00011484815745118324 0.0
0.22009170019510538 -0.00028802263308463043 0.0
0.28993658103222475 -0.000486136994985638 0.0
0.34972895257956815 -0.0006773385365216547 0.0
0.39948441335525103 -0.0008424900325259106 0.0
0.43920649247315946 -0.0009728287191880647 0.0
0.46890054978845647 -0.0010678724443558684 0.0
0.4885836783571517 -0.0011299478440459057 0.0
0.4982831792409805 -0.001159552279400174 0.0
0.4980256371266864 -0.0011533711537291829 0.0
0.4878260077199993 -0.0011063321188271701 0.0
0.46768552112673745 -0.0010159062045516217 0.0
0.4376004418837831 -0.0008857607589057393 0.0
0.39757537351812866 -0.0007265068595479381 0.0
0.3476320587921805 -0.0005526192518180067 0.0
0.28780843128800154 -0.00037879601214426035 0.0
0.21814999821538064 -0.00021818632276356437 0.0
0.13869940028904515 -8.671321213183497e-5 0.0
0.04948451591680608 -1.529092106611974e-5 0.0
0.05016956722924152 -2.1374424046539943e-5 0.0
0.14030883005069147 -0.00012474328290978885 0.0
0.22028503524035042 -0.0003138248251367308 0.0
0.2901414074896274 -0.0005327136884672838 0.0
0.3499193704237935 -0.0007481154119673443 0.0
0.3996448093929352 -0.0009391315466109829 0.0
0.4393306187440444 -0.0010943560452118279 0.0
0.46898788458926044 -0.001210264503965722 0.0
0.4886347776412861 -0.0012867182237856973 0.0
0.4982965256996721 -0.0013231854866641967 0.0
0.49799760355934275 -0.0013168448158037106 0.0
0.4877535975822378 -0.0012640407176229109 0.0
0.46756984353548503 -0.0011636392258467618 0.0
0.43744856012547556 -0.0010199003206427218 0.0
0.3973994030031771 -0.0008431007051340121 0.0
0.34744652242818524 -0.0006471445169506221 0.0
0.2876283341977009 -0.0004472112225031928 0.0
0.21799153473581429 -0.0002588524761360197 0.0
0.13858258502837986 -0.00010279689175633523 0.0
0.049434931031723806 -1.7969597571362653e-5 0.0
0.05023778175036694 -2.3543885772580434e-5 0.0
0.14047048824665126 -0.0001373729416745918 0.0
0.2204985625018568 -0.000346186471066805 0.0
0.2903704711806822 -0.0005898538923741301 0.0
0.3501362195540133 -0.0008328633502989503 0.0
0.39983153673617466 -0.001052256303894966 0.0
0.4394782334378983 -0.0012340607431986729 0.0
0.4690932675160628 -0.001371984495773578 0.0
0.48869681064894066 -0.0014636359865597528 0.0
0.49831335915284264 -0.0015074534583078621 0.0
0.4979664143428211 -0.0015008951806125173 0.0
0.48767264076238553 -0.0014414194661914168 0.0
0.4674411580869456 -0.0013290687706121519 0.0
0.43727943364329164 -0.0011687308190383415 0.0
0.39720177111028576 -0.0009707269475007091 0.0
0.3472352237096072 -0.0007490200609477398 0.0
0.28742014822042006 -0.0005198821972333369 0.0
0.21780627191110347 -0.00030158140078821846 0.0
0.13844532087627748 -0.00011961111396962194 0.0
0.049376831192679986 -2.0773920535951426e-5 0.0
0.05031331119048746 -2.6228075313780494e-5 0.0
0.1406496967509335 -0.0001528848468857426 0.0
0.22073635676198114 -0.00038556383911311255 0.0
0.29062771867170223 -0.000658476184363677 0.0
0.35038276544458513 -0.0009330892608892073 0.0
0.4000470089163937 -0.0011840182597660771 0.0
0.439651012802142 -0.001394693096606488 0.0
0.4692178381624737 -0.0015562202193279008 0.0
0.4887704752086756 -0.0016641100788392965 0.0
0.4983338460927121 -0.0017157759566659948 0.0
0.4979314823061145 -0.0017087960202536415 0.0
0.4875815770170734 -0.0016415151805138847 0.0
0.46729687331453584 -0.00151500800480069 0.0
0.43708965333808825 -0.0013348690428399584 0.0
0.39697872360957404 -0.0011118235317112023 0.0
0.34699462806986614 -0.0008604339504273242 0.0
0.28718098319129975 -0.00059857627926738 0.0
0.21759212677716824 -0.00034752940012534346 0.0
0.13828631178873846 -0.00013764764771769485 0.0
0.04930970338642241 -2.3791503768370338e-5 0.0
0.05039772190063158 -2.9462504978939937e-5 0.0
0.14085003659319092 -0.00017150997491401836 0.0
0.22100291857651302 -0.0004325902290402563 0.0
0.2909176557470719 -0.0007397615227728182 0.0
0.35066291516365244 -0.0010506222597997151 0.0
0.40029427684628205 -0.0013369267711174004 0.0
0.43985116541027663 -0.0015793780298208435 0.0
0.46936308396165694 -0.001766553064277213 0.0
0.488856605228448 -0.0018919646364721513 0.0
0.49835810289067367 -0.0019520069157059109 0.0
0.49789204360157774 -0.001944263095195055 0.0
0.4874786128199777 -0.001867804493176048 0.0
0.4671341608445776 -0.0017246581685032361 0.0
0.43687557793887905 -0.0015212393031085172 0.0
0.39672623054241435 -0.0012690187085922834 0.0
0.34672080639865943 -0.0009836357721538995 0.0
0.2869074012953319 -0.0006850244375988273 0.0
0.21734638226159014 -0.00039778297679191873 0.0
0.13810371251215353 -0.00015735393070446862 0.0
0.04923278973347223 -2.7099501465104636e-5 0.0
0.05049272123883831 -3.330161311356139e-5 0.0
0.14107544768271923 -0.00019357121104892643 0.0
0.22130327308782874 -0.0004881030469117945 0.0
0.2912454278466975 -0.0008352005669934963 0.0
0.35098126871226243 -0.0011876796476039235 0.0
0.4005770563277293 -0.0015139274330271163 0.0
0.44008144652603676 -0.0017917036647124946 0.0
0.4695308511787535 -0.002007045118443772 0.0
0.4889561787141698 -0.002151516899238031 0.0
0.49838619525515343 -0.0022204983344075503 0.0
0.4978471412075474 -0.002211501844756893 0.0
0.48736168043396794 -0.002124225206246066 0.0
0.46694988244880054 -0.001961625315022619 0.0
0.4366332285264712 -0.0017310820425281857 0.0
0.39643986371681916 -0.0014451425333692244 0.0
0.34640932672264335 -0.001120960338990136 0.0
0.28659535394407465 -0.000780956793663683 0.0
0.2170656787139294 -0.00045339332735115737 0.0
0.1378951531789715 -0.00017915197248106142 0.0
0.04914510615396911 -3.076883765334137e-5 0.0
0.05060020932835952 -3.7819854681227746e-5 0.0
0.1413303349027884 -0.00021949347996485326 0.0
0.22164308877504815 -0.0005531730584479906 0.0
0.2916169226448612 -0.0009466455876355638 0.0
0.35134319179918405 -0.001346940021222966 0.0
0.40089977154410406 -0.0017184925162024704 0.0
0.44034518094304215 -0.0020358208133820594 0.0
0.469723355201274 -0.002282337159390355 0.0
0.48907031856486893 -0.002447665691450989 0.0
0.49841812695784493 -0.0025261743054902025 0.0
0.4977955960174452 -0.0025152645952369527 0.0
0.4872283852841973 -0.002415215864039176 0.0
0.46674050998068456 -0.0022299449392948127 0.0
0.43635818430029566 -0.001967970193009236 0.0
0.39611468379415543 -0.0016432439713247459 0.0
0.34605515737570924 -0.0012748520416676792 0.0
0.2862401230375438 -0.0008881323621142705 0.0
0.21674599755379423 -0.0005154026457508052 0.0
0.13765774941074566 -0.0002034524325616141 0.0
0.04904545222338787 -3.486732097820358e-5 0.0
0.05072233638907425 -4.311384597971989e-5 0.0
0.14161969001993358 -0.0002498181222154975 0.0
0.22202881827803453 -0.0006291416669663532 0.0
0.2920388958159857 -0.0010763733552368216 0.0
0.3517549092049612 -0.0015316299882503453 0.0
0.4012676128096649 -0.0019547251427874156 0.0
0.44064629183327764 -0.002316555950373876 0.0
0.4699431881231957 -0.0025977605609916435 0.0
0.4892002834084379 -0.0027859929982991844 0.0
0.49845381402428934 -0.0028746158973578287 0.0
0.49773596223840794 -0.0028609157906132093 0.0
0.48707593949364686 -0.0027457620693327463 0.0
0.46650203588406425 -0.0025341125488507346 0.0
0.4360454758488028 -0.0022358303424094648 0.0
0.3957451305441863 -0.0018666103262722277 0.0
0.34565257464825233 -0.0014478872337108466 0.0
0.2858362614001011 -0.0010083633720200324 0.0
0.21638263674209418 -0.0005848635836121295 0.0
0.13738810096689458 -0.00023066372441909249 0.0
0.048932414787411574 -3.946136962627228e-5 0.0
0.05086156891905237 -4.930604437511307e-5 0.0
0.141949234565593 -0.0002852233999886915 0.0
0.22246786590552717 -0.00071767091652634 0.0
0.29251912335188646 -0.0012271664749568755 0.0
0.35222361933760865 -0.0017456321904149579 0.0
0.40168660747693385 -0.0022274858997606375 0.0
0.44098933190498746 -0.0026395450982063164 0.0
0.4701933188104949 -0.002959466707300271 0.0
0.4893474433098155 -0.003172879501451244 0.0