# vtk DataFile Version 3.0
XCALibre.jl simulation data
ASCII
DATASET UNSTRUCTURED_GRID
POINTS 7441 double
0.0 0.0 0.0
0.2 0.0 0.0
0.2 0.1 0.0
0.0 0.1 0.0
1.0 0.1 0.0
1.0 0.0 0.0
0.2 -0.1 0.0
1.0 -0.1 0.0
0.005 0.0 0.0
0.01 0.0 0.0
0.015 0.0 0.0
0.02 0.0 0.0
0.025 0.0 0.0
0.03 0.0 0.0
0.035 0.0 0.0
0.04 0.0 0.0
0.045 0.0 0.0
0.05 0.0 0.0
0.055 0.0 0.0
0.06 0.0 0.0
0.065 0.0 0.0
0.07 0.0 0.0
0.075 0.0 0.0
0.08 0.0 0.0
0.085 0.0 0.0
0.09 0.0 0.0
0.095 0.0 0.0
0.1 0.0 0.0
0.105 0.0 0.0
0.11 0.0 0.0
0.115 0.0 0.0
0.12 0.0 0.0
0.125 0.0 0.0
0.13 0.0 0.0
0.135 0.0 0.0
0.14 0.0 0.0
0.145 0.0 0.0
0.15 0.0 0.0
0.155 0.0 0.0
0.16 0.0 0.0
0.165 0.0 0.0
0.17 0.0 0.0
0.17500000000000002 0.0 0.0
0.18 0.0 0.0
0.185 0.0 0.0
0.19 0.0 0.0
0.195 0.0 0.0
0.2 0.095 0.0
0.2 0.09 0.0
0.2 0.085 0.0
0.2 0.08 0.0
0.2 0.075 0.0
0.2 0.07 0.0
0.2 0.065 0.0
0.2 0.06 0.0
0.2 0.055 0.0
0.2 0.05 0.0
0.2 0.045 0.0
0.2 0.04 0.0
0.2 0.035 0.0
0.2 0.03 0.0
0.2 0.025 0.0
0.2 0.02 0.0
0.2 0.015 0.0
0.2 0.01 0.0
0.2 0.005 0.0
0.005 0.1 0.0
0.01 0.1 0.0
0.015 0.1 0.0
0.02 0.1 0.0
0.025 0.1 0.0
0.03 0.1 0.0
0.035 0.1 0.0
0.04 0.1 0.0
0.045 0.1 0.0
0.05 0.1 0.0
0.055 0.1 0.0
0.06 0.1 0.0
0.065 0.1 0.0
0.07 0.1 0.0
0.075 0.1 0.0
0.08 0.1 0.0
0.085 0.1 0.0
0.09 0.1 0.0
0.095 0.1 0.0
0.1 0.1 0.0
0.105 0.1 0.0
0.11 0.1 0.0
0.115 0.1 0.0
0.12 0.1 0.0
0.125 0.1 0.0
0.13 0.1 0.0
0.135 0.1 0.0
0.14 0.1 0.0
0.145 0.1 0.0
0.15 0.1 0.0
0.155 0.1 0.0
0.16 0.1 0.0
0.165 0.1 0.0
0.17 0.1 0.0
0.17500000000000002 0.1 0.0
0.18 0.1 0.0
0.185 0.1 0.0
0.19 0.1 0.0
0.195 0.1 0.0
0.0 0.005 0.0
0.0 0.01 0.0
0.0 0.015 0.0
0.0 0.02 0.0
0.0 0.025 0.0
0.0 0.03 0.0
0.0 0.035 0.0
0.0 0.04 0.0
0.0 0.045 0.0
0.0 0.05 0.0
0.0 0.055 0.0
0.0 0.06 0.0
0.0 0.065 0.0
0.0 0.07 0.0
0.0 0.075 0.0
0.0 0.08 0.0
0.0 0.085 0.0
0.0 0.09 0.0
0.0 0.095 0.0
1.0 0.095 0.0
1.0 0.09 0.0
1.0 0.085 0.0
1.0 0.08 0.0
1.0 0.075 0.0
1.0 0.07 0.0
1.0 0.065 0.0
1.0 0.06 0.0
1.0 0.055 0.0
1.0 0.05 0.0
1.0 0.045 0.0
1.0 0.04 0.0
1.0 0.035 0.0
1.0 0.03 0.0
1.0 0.025 0.0
1.0 0.02 0.0
1.0 0.015 0.0
1.0 0.01 0.0
1.0 0.005 0.0
0.20500000000000002 0.1 0.0
0.21 0.1 0.0
0.215 0.1 0.0
0.22 0.1 0.0
0.225 0.1 0.0
0.23 0.1 0.0
0.23500000000000001 0.1 0.0
0.24 0.1 0.0
0.245 0.1 0.0
0.25 0.1 0.0
0.255 0.1 0.0
0.26 0.1 0.0
0.265 0.1 0.0
0.27 0.1 0.0
0.275 0.1 0.0
0.28 0.1 0.0
0.28500000000000003 0.1 0.0
0.29 0.1 0.0
0.295 0.1 0.0
0.3 0.1 0.0
0.305 0.1 0.0
0.31 0.1 0.0
0.315 0.1 0.0
0.32 0.1 0.0
0.325 0.1 0.0
0.33 0.1 0.0
0.335 0.1 0.0
0.34 0.1 0.0
0.34500000000000003 0.1 0.0
0.35000000000000003 0.1 0.0
0.355 0.1 0.0
0.36 0.1 0.0
0.365 0.1 0.0
0.37 0.1 0.0
0.375 0.1 0.0
0.38 0.1 0.0
0.385 0.1 0.0
0.39 0.1 0.0
0.395 0.1 0.0
0.4 0.1 0.0
0.405 0.1 0.0
0.41000000000000003 0.1 0.0
0.41500000000000004 0.1 0.0
0.42 0.1 0.0
0.425 0.1 0.0
0.43 0.1 0.0
0.435 0.1 0.0
0.44 0.1 0.0
0.445 0.1 0.0
0.45 0.1 0.0
0.455 0.1 0.0
0.46 0.1 0.0
0.465 0.1 0.0
0.47000000000000003 0.1 0.0
0.47500000000000003 0.1 0.0
0.48 0.1 0.0
0.485 0.1 0.0
0.49 0.1 0.0
0.495 0.1 0.0
0.5 0.1 0.0
0.505 0.1 0.0
0.51 0.1 0.0
0.515 0.1 0.0
0.52 0.1 0.0
0.525 0.1 0.0
0.53 0.1 0.0
0.535 0.1 0.0
0.54 0.1 0.0
0.545 0.1 0.0
0.55 0.1 0.0
0.555 0.1 0.0
0.56 0.1 0.0
0.5650000000000001 0.1 0.0
0.5700000000000001 0.1 0.0
0.5750000000000001 0.1 0.0
0.58 0.1 0.0
0.585 0.1 0.0
0.59 0.1 0.0
0.595 0.1 0.0
0.6 0.1 0.0
0.605 0.1 0.0
0.61 0.1 0.0
0.615 0.1 0.0
0.62 0.1 0.0
0.625 0.1 0.0
0.63 0.1 0.0
0.635 0.1 0.0
0.64 0.1 0.0
0.645 0.1 0.0
0.65 0.1 0.0
0.655 0.1 0.0
0.66 0.1 0.0
0.665 0.1 0.0
0.67 0.1 0.0
0.675 0.1 0.0
0.68 0.1 0.0
0.685 0.1 0.0
0.6900000000000001 0.1 0.0
0.6950000000000001 0.1 0.0
0.7000000000000001 0.1 0.0
0.705 0.1 0.0
0.71 0.1 0.0
0.715 0.1 0.0
0.72 0.1 0.0
0.725 0.1 0.0
0.73 0.1 0.0
0.735 0.1 0.0
0.74 0.1 0.0
0.745 0.1 0.0
0.75 0.1 0.0
0.755 0.1 0.0
0.76 0.1 0.0
0.765 0.1 0.0
0.77 0.1 0.0
0.775 0.1 0.0
0.78 0.1 0.0
0.785 0.1 0.0
0.79 0.1 0.0
0.795 0.1 0.0
0.8 0.1 0.0
0.805 0.1 0.0
0.81 0.1 0.0
0.8150000000000001 0.1 0.0
0.8200000000000001 0.1 0.0
0.8250000000000001 0.1 0.0
0.8300000000000001 0.1 0.0
0.835 0.1 0.0
0.84 0.1 0.0
0.845 0.1 0.0
0.85 0.1 0.0
0.855 0.1 0.0
0.86 0.1 0.0
0.865 0.1 0.0
0.87 0.1 0.0
0.875 0.1 0.0
0.88 0.1 0.0
0.885 0.1 0.0
0.89 0.1 0.0
0.895 0.1 0.0
0.9 0.1 0.0
0.905 0.1 0.0
0.91 0.1 0.0
0.915 0.1 0.0
0.92 0.1 0.0
0.925 0.1 0.0
0.93 0.1 0.0
0.935 0.1 0.0
0.9400000000000001 0.1 0.0
0.9450000000000001 0.1 0.0
0.9500000000000001 0.1 0.0
0.9550000000000001 0.1 0.0
0.96 0.1 0.0
0.965 0.1 0.0
0.97 0.1 0.0
0.975 0.1 0.0
0.98 0.1 0.0
0.985 0.1 0.0
0.99 0.1 0.0
0.995 0.1 0.0
0.995 0.0 0.0
0.99 0.0 0.0
0.985 0.0 0.0
0.98 0.0 0.0
0.975 0.0 0.0
0.97 0.0 0.0
0.965 0.0 0.0
0.96 0.0 0.0
0.9550000000000001 0.0 0.0
0.9500000000000001 0.0 0.0
0.9450000000000001 0.0 0.0
0.9400000000000001 0.0 0.0
0.935 0.0 0.0
0.93 0.0 0.0
0.925 0.0 0.0
0.92 0.0 0.0
0.915 0.0 0.0
0.91 0.0 0.0
0.905 0.0 0.0
0.9 0.0 0.0
0.895 0.0 0.0
0.89 0.0 0.0
0.885 0.0 0.0
0.88 0.0 0.0
0.875 0.0 0.0
0.87 0.0 0.0
0.865 0.0 0.0
0.86 0.0 0.0
0.855 0.0 0.0
0.85 0.0 0.0
0.845 0.0 0.0
0.84 0.0 0.0
0.835 0.0 0.0
0.8300000000000001 0.0 0.0
0.8250000000000001 0.0 0.0
0.8200000000000001 0.0 0.0
0.8150000000000001 0.0 0.0
0.81 0.0 0.0
0.805 0.0 0.0
0.8 0.0 0.0
0.795 0.0 0.0
0.79 0.0 0.0
0.785 0.0 0.0
0.78 0.0 0.0
0.775 0.0 0.0
0.77 0.0 0.0
0.765 0.0 0.0
0.76 0.0 0.0
0.755 0.0 0.0
0.75 0.0 0.0
0.745 0.0 0.0
0.74 0.0 0.0
0.735 0.0 0.0
0.73 0.0 0.0
0.725 0.0 0.0
0.72 0.0 0.0
0.715 0.0 0.0
0.71 0.0 0.0
0.705 0.0 0.0
0.7000000000000001 0.0 0.0
0.6950000000000001 0.0 0.0
0.6900000000000001 0.0 0.0
0.685 0.0 0.0
0.68 0.0 0.0
0.675 0.0 0.0
0.67 0.0 0.0
0.665 0.0 0.0
0.66 0.0 0.0
0.655 0.0 0.0
0.65 0.0 0.0
0.645 0.0 0.0
0.64 0.0 0.0
0.635 0.0 0.0
0.63 0.0 0.0
0.625 0.0 0.0
0.62 0.0 0.0
0.615 0.0 0.0
0.61 0.0 0.0
0.605 0.0 0.0
0.6 0.0 0.0
0.595 0.0 0.0
0.59 0.0 0.0
0.585 0.0 0.0
0.58 0.0 0.0
0.5750000000000001 0.0 0.0
0.5700000000000001 0.0 0.0
0.5650000000000001 0.0 0.0
0.56 0.0 0.0
0.555 0.0 0.0
0.55 0.0 0.0
0.545 0.0 0.0
0.54 0.0 0.0
0.535 0.0 0.0
0.53 0.0 0.0
0.525 0.0 0.0
0.52 0.0 0.0
0.515 0.0 0.0
0.51 0.0 0.0
0.505 0.0 0.0
0.5 0.0 0.0
0.495 0.0 0.0
0.49 0.0 0.0
0.485 0.0 0.0
0.48 0.0 0.0
0.47500000000000003 0.0 0.0
0.47000000000000003 0.0 0.0
0.465 0.0 0.0
0.46 0.0 0.0
0.455 0.0 0.0
0.45 0.0 0.0
0.445 0.0 0.0
0.44 0.0 0.0
0.435 0.0 0.0
0.43 0.0 0.0
0.425 0.0 0.0
0.42 0.0 0.0
0.41500000000000004 0.0 0.0
0.41000000000000003 0.0 0.0
0.405 0.0 0.0
0.4 0.0 0.0
0.395 0.0 0.0
0.39 0.0 0.0
0.385 0.0 0.0
0.38 0.0 0.0
0.375 0.0 0.0
0.37 0.0 0.0
0.365 0.0 0.0
0.36 0.0 0.0
0.355 0.0 0.0
0.35000000000000003 0.0 0.0
0.34500000000000003 0.0 0.0
0.34 0.0 0.0
0.335 0.0 0.0
0.33 0.0 0.0
0.325 0.0 0.0
0.32 0.0 0.0
0.315 0.0 0.0
0.31 0.0 0.0
0.305 0.0 0.0
0.3 0.0 0.0
0.295 0.0 0.0
0.29 0.0 0.0
0.28500000000000003 0.0 0.0
0.28 0.0 0.0
0.275 0.0 0.0
0.27 0.0 0.0
0.265 0.0 0.0
0.26 0.0 0.0
0.255 0.0 0.0
0.25 0.0 0.0
0.245 0.0 0.0
0.24 0.0 0.0
0.23500000000000001 0.0 0.0
0.23 0.0 0.0
0.225 0.0 0.0
0.22 0.0 0.0
0.215 0.0 0.0
0.21 0.0 0.0
0.20500000000000002 0.0 0.0
0.2 -0.005 0.0
0.2 -0.01 0.0
0.2 -0.015 0.0
0.2 -0.02 0.0
0.2 -0.025 0.0
0.2 -0.03 0.0
0.2 -0.035 0.0
0.2 -0.04 0.0
0.2 -0.045 0.0
0.2 -0.05 0.0
0.2 -0.055 0.0
0.2 -0.06 0.0
0.2 -0.065 0.0
0.2 -0.07 0.0
0.2 -0.075 0.0
0.2 -0.08 0.0
0.2 -0.085 0.0
0.2 -0.09 0.0
0.2 -0.095 0.0
0.20500000000000002 -0.1 0.0
0.21 -0.1 0.0
0.215 -0.1 0.0
0.22 -0.1 0.0
0.225 -0.1 0.0
0.23 -0.1 0.0
0.23500000000000001 -0.1 0.0
0.24 -0.1 0.0
0.245 -0.1 0.0
0.25 -0.1 0.0
0.255 -0.1 0.0
0.26 -0.1 0.0
0.265 -0.1 0.0
0.27 -0.1 0.0
0.275 -0.1 0.0
0.28 -0.1 0.0
0.28500000000000003 -0.1 0.0
0.29 -0.1 0.0
0.295 -0.1 0.0
0.3 -0.1 0.0
0.305 -0.1 0.0
0.31 -0.1 0.0
0.315 -0.1 0.0
0.32 -0.1 0.0
0.325 -0.1 0.0
0.33 -0.1 0.0
0.335 -0.1 0.0
0.34 -0.1 0.0
0.34500000000000003 -0.1 0.0
0.35000000000000003 -0.1 0.0
0.355 -0.1 0.0
0.36 -0.1 0.0
0.365 -0.1 0.0
0.37 -0.1 0.0
0.375 -0.1 0.0
0.38 -0.1 0.0
0.385 -0.1 0.0
0.39 -0.1 0.0
0.395 -0.1 0.0
0.4 -0.1 0.0
0.405 -0.1 0.0
0.41000000000000003 -0.1 0.0
0.41500000000000004 -0.1 0.0
0.42 -0.1 0.0
0.425 -0.1 0.0
0.43 -0.1 0.0
0.435 -0.1 0.0
0.44 -0.1 0.0
0.445 -0.1 0.0
0.45 -0.1 0.0
0.455 -0.1 0.0
0.46 -0.1 0.0
0.465 -0.1 0.0
0.47000000000000003 -0.1 0.0
0.47500000000000003 -0.1 0.0
0.48 -0.1 0.0
0.485 -0.1 0.0
0.49 -0.1 0.0
0.495 -0.1 0.0
0.5 -0.1 0.0
0.505 -0.1 0.0
0.51 -0.1 0.0
0.515 -0.1 0.0
0.52 -0.1 0.0
0.525 -0.1 0.0
0.53 -0.1 0.0
0.535 -0.1 0.0
0.54 -0.1 0.0
0.545 -0.1 0.0
0.55 -0.1 0.0
0.555 -0.1 0.0
0.56 -0.1 0.0
0.5650000000000001 -0.1 0.0
0.5700000000000001 -0.1 0.0
0.5750000000000001 -0.1 0.0
0.58 -0.1 0.0
0.585 -0.1 0.0
0.59 -0.1 0.0
0.595 -0.1 0.0
0.6 -0.1 0.0
0.605 -0.1 0.0
0.61 -0.1 0.0
0.615 -0.1 0.0
0.62 -0.1 0.0
0.625 -0.1 0.0
0.63 -0.1 0.0
0.635 -0.1 0.0
0.64 -0.1 0.0
0.645 -0.1 0.0
0.65 -0.1 0.0
0.655 -0.1 0.0
0.66 -0.1 0.0
0.665 -0.1 0.0
0.67 -0.1 0.0
0.675 -0.1 0.0
0.68 -0.1 0.0
0.685 -0.1 0.0
0.6900000000000001 -0.1 0.0
0.6950000000000001 -0.1 0.0
0.7000000000000001 -0.1 0.0
0.705 -0.1 0.0
0.71 -0.1 0.0
0.715 -0.1 0.0
0.72 -0.1 0.0
0.725 -0.1 0.0
0.73 -0.1 0.0
0.735 -0.1 0.0
0.74 -0.1 0.0
0.745 -0.1 0.0
0.75 -0.1 0.0
0.755 -0.1 0.0
0.76 -0.1 0.0
0.765 -0.1 0.0
0.77 -0.1 0.0
0.775 -0.1 0.0
0.78 -0.1 0.0
0.785 -0.1 0.0
0.79 -0.1 0.0
0.795 -0.1 0.0
0.8 -0.1 0.0
0.805 -0.1 0.0
0.81 -0.1 0.0
0.8150000000000001 -0.1 0.0
0.8200000000000001 -0.1 0.0
0.8250000000000001 -0.1 0.0
0.8300000000000001 -0.1 0.0
0.835 -0.1 0.0
0.84 -0.1 0.0
0.845 -0.1 0.0
0.85 -0.1 0.0
0.855 -0.1 0.0
0.86 -0.1 0.0
0.865 -0.1 0.0
0.87 -0.1 0.0
0.875 -0.1 0.0
0.88 -0.1 0.0
0.885 -0.1 0.0
0.89 -0.1 0.0
0.895 -0.1 0.0
0.9 -0.1 0.0
0.905 -0.1 0.0
0.91 -0.1 0.0
0.915 -0.1 0.0
0.92 -0.1 0.0
0.925 -0.1 0.0
0.93 -0.1 0.0
0.935 -0.1 0.0
0.9400000000000001 -0.1 0.0
0.9450000000000001 -0.1 0.0
0.9500000000000001 -0.1 0.0
0.9550000000000001 -0.1 0.0
0.96 -0.1 0.0
0.965 -0.1 0.0
0.97 -0.1 0.0
0.975 -0.1 0.0
0.98 -0.1 0.0
0.985 -0.1 0.0
0.99 -0.1 0.0
0.995 -0.1 0.0
1.0 -0.095 0.0
1.0 -0.09 0.0
1.0 -0.085 0.0
1.0 -0.08 0.0
1.0 -0.075 0.0
1.0 -0.07 0.0
1.0 -0.065 0.0
1.0 -0.06 0.0
1.0 -0.055 0.0
[...]
CELL_DATA 7200
VECTORS U double
0.048183393306231045 -2.1795090872078854e-5 0.0
0.13673243341969712 -0.00020995455054972705 0.0
0.21692361696696283 -0.0003994136210870862 0.0
0.2877657069080638 -0.00036886527551932964 0.0
0.34850905445982194 -0.00023707965393552922 0.0
0.398800044058066 -0.00010825320647346094 0.0
0.43861315317497646 -2.2264931480902948e-5 0.0
0.46812575091857955 1.5121617477998921e-5 0.0
0.4875948695249089 1.1829559222719125e-5 0.0
0.4972561967722479 -1.796391111147769e-5 0.0
0.49725221232471684 -5.747824709076298e-5 0.0
0.4875907240053689 -8.842813290981397e-5 0.0
0.46813686283244826 -9.171297304337166e-5 0.0
0.4386434469958508 -4.985174294471144e-5 0.0
0.398825809785764 4.601524798012142e-5 0.0
0.34848621407811753 0.00018231479236562834 0.0
0.28767918135019477 0.00029177338146327346 0.0
0.21687259883173415 0.00021364050243340518 0.0
0.13698539062164194 -0.00017571333402237018 0.0
0.0489238530231676 -0.00023609715186500408 0.0
0.04914644574016327 -5.2934369075816734e-5 0.0
0.13788577033208682 -0.0003176365275321561 0.0
0.2178256686788381 -0.0006203087626276143 0.0
0.28840979797948874 -0.000664075784461948 0.0
0.34900979601075593 -0.0005142321878738975 0.0
0.39925654644356945 -0.00031232570043500065 0.0
0.43907871611968613 -0.00014950919734372825 0.0
0.46861779501494527 -6.184417164810564e-5 0.0
0.48811174068129237 -4.794880048314008e-5 0.0
0.49778752650624386 -8.534516097503487e-5 0.0
0.4977837045848445 -0.00014097810470626118 0.0
0.4881067699828611 -0.00017737180273870277 0.0
0.46862413340306625 -0.00015828333334378053 0.0
0.4390989206675013 -5.779720422357329e-5 0.0
0.3992729128368547 0.00012323404287211672 0.0
0.34899795890072444 0.00033421231960895217 0.0
0.2883851190397664 0.00045488948683355143 0.0
0.21789378850812471 0.0003172047418040677 0.0
0.1382162590432933 -7.924746778751934e-5 0.0
0.04963339076697122 -0.00015622118759505546 0.0
0.049259239530890134 -3.752296908335471e-5 0.0
0.1382918403631296 -0.0002617114505127064 0.0
0.21815642963064405 -0.000566854022294971 0.0
0.2885673326462604 -0.0006765789028110673 0.0
0.34906079971693355 -0.0005894703850795388 0.0
0.3992974955263231 -0.00041498678674253906 0.0
0.4391719920011736 -0.0002516782191529443 0.0
0.4687843063795275 -0.00015342411008675345 0.0
0.48834148020703577 -0.00013015827866445147 0.0
0.4980524861694711 -0.0001621563187495874 0.0
0.4980472141011877 -0.00021297898790802942 0.0
0.48833076433324907 -0.00023978095810557056 0.0
0.4687779084781054 -0.00020354708957256586 0.0
0.43917273020488856 -8.251187912817826e-5 0.0
0.3992963180441039 0.00010962240487968345 0.0
0.34905156853648905 0.00030644904941618743 0.0
0.288578752369608 0.0003941117618128404 0.0
0.2182656093932298 0.0002682328048305174 0.0
0.13856514381585952 -6.113721090537972e-6 0.0
0.04954860524076967 -7.180555847377295e-5 0.0
0.04934397016499601 -4.042220114883107e-5 0.0
0.1385008056983572 -0.00023315467303179236 0.0
0.21827970942796016 -0.0005024778602896207 0.0
0.2885153019584079 -0.0006354917522433507 0.0
0.348877609930133 -0.0006002010839670414 0.0
0.3990766745860258 -0.00046990521322098244 0.0
0.43898886288349714 -0.00033054895451023887 0.0
0.46867334202275324 -0.0002391932956971405 0.0
0.48829914982077527 -0.00021386662534394514 0.0
0.4980492518047708 -0.00023979091827448275 0.0
0.4980402759726819 -0.00028191251775242746 0.0
0.4882761502224339 -0.00029763404951376084 0.0
0.46864410205925844 -0.0002500149358074376 0.0
0.4389573081425246 -0.00012324025239415277 0.0
0.3990413203228249 6.089946166582493e-5 0.0
0.3488433578434507 0.00023647511760848755 0.0
0.2885101825297634 0.00031140883015285585 0.0
0.21834862592295196 0.00022568740312061214 0.0
0.13865420999585962 4.819580221323582e-5 0.0
0.049468089878317176 -1.8226773605971476e-5 0.0
0.04946234061536898 -4.128281205315779e-5 0.0
0.13873087244152973 -0.00021249108348346678 0.0
0.21845496974292894 -0.0004532061734294445 0.0
0.2885448260693825 -0.0005978933810705112 0.0
0.3487742294728032 -0.0006031515235500112 0.0
0.39891120255364176 -0.0005146468681297568 0.0
0.43883389660180816 -0.00040324837683299 0.0
0.46856992200861686 -0.00032405417059802166 0.0
0.48825166323437247 -0.00029911344786046973 0.0
0.4980340371533211 -0.00031810986151680013 0.0
0.4980186636574554 -0.0003491683847515261 0.0
0.4882086664490534 -0.00035242753328498355 0.0
0.46850593615666947 -0.0002947499352654074 0.0
0.4387541941468285 -0.00016549896343622287 0.0
0.3988195807194525 9.951460103210685e-6 0.0
0.34868083446033743 0.00017055089762117655 0.0
0.288473369979512 0.0002432156818104036 0.0
0.2184331943853421 0.00019216588764137452 0.0
0.13876086246764974 7.240900835947601e-5 0.0
0.049490582666129636 6.266572563923725e-6 0.0
0.04957125596577458 -3.5626398848557535e-5 0.0
0.1389467985967008 -0.00018384094352622802 0.0
0.2186501678152146 -0.0004011508381908694 0.0
0.28863790569856923 -0.0005539528635817892 0.0
0.34875813808912354 -0.0005947141254649248 0.0
0.3988322941491775 -0.0005477471584431567 0.0
0.4387510204112139 -0.00046820807412990503 0.0
0.4685220587004802 -0.00040598855991272483 0.0
0.48824677552053425 -0.00038442641493684914 0.0
0.49805345909472154 -0.00039720934970467167 0.0
0.4980287763122638 -0.0004168493941305593 0.0
0.48817537589746196 -0.0004079755971011882 0.0
0.46841009292408275 -0.0003424136057526866 0.0
0.438605173497898 -0.00021412018561655228 0.0
0.3986601241753935 -4.9401429943795555e-5 0.0
0.3485728698110876 9.751361978497811e-5 0.0
0.2884615258378885 0.00016953684581930403 0.0
0.21850766191119153 0.00014502830757752406 0.0
0.13885430812869307 6.520884813819653e-5 0.0
0.049530644838047005 1.1108689329897416e-5 0.0
0.049661774378375 -2.922442590758389e-5 0.0
0.13913203557817067 -0.00015610891997017322 0.0
0.21883195711009107 -0.00035207669578024006 0.0
0.2887474505294742 -0.0005082762916546092 0.0
0.34877983440289073 -0.0005778245269251807 0.0
0.3987955482797986 -0.0005697830231152317 0.0
0.438701629780212 -0.0005240704216930889 0.0
0.4684944547280854 -0.00048270361602933303 0.0
0.4882503121793647 -0.0004681337212114666 0.0
0.49807344632439077 -0.0004772871410610536 0.0
0.4980364007072606 -0.00048750597157398766 0.0
0.48814161839056985 -0.0004687799293874457 0.0
0.46832032094179876 -0.00039826941036645596 0.0
0.43847032709023565 -0.00027370628982485224 0.0
0.398517911146154 -0.0001204969278296956 0.0
0.3484724188796205 1.526156809995111e-5 0.0
0.28843493298999273 8.985118468249531e-5 0.0
0.21854675900023013 8.965192817561079e-5 0.0
0.13891397591940577 4.423542894341292e-5 0.0
0.04956080585384499 8.552961167250724e-6 0.0
0.049738351374154985 -2.444586710042036e-5 0.0
0.13929419452401343 -0.00013495865614091923 0.0
0.2190015952920527 -0.0003137300272795809 0.0
0.2888654500549449 -0.0004710660589057101 0.0
0.3488259685546583 -0.0005631054644182021 0.0
0.39878696084316867 -0.0005889481722948446 0.0
0.4386732032110972 -0.0005755809810072526 0.0
0.4684755586086199 -0.0005563650982700173 0.0
0.4882507361912851 -0.0005513299478880764 0.0
0.49808213352446856 -0.0005595761369434691 0.0
0.49802953491979346 -0.000562955906698545 0.0
0.4880954096139344 -0.000536797306139702 0.0
0.46822426790100424 -0.0004632158881957194 0.0
0.4383361844294914 -0.00034267509201574807 0.0
0.3983786501434307 -0.0001985665721903789 0.0
0.34836775755137583 -6.910466113767458e-5 0.0
0.288389228621462 1.214139790925039e-5 0.0
0.2185543270612709 3.555690381256084e-5 0.0
0.13894410334410914 2.110103553762282e-5 0.0
0.04957862203098489 4.419779232942135e-6 0.0
0.049805279413951936 -2.1225743704527528e-5 0.0
0.13944101009506354 -0.00012041705219959866 0.0
0.21916490578495207 -0.0002872568717921488 0.0
0.2889939726013427 -0.0004462042997676312 0.0
0.34889685616410504 -0.0005568528008377439 0.0
0.3988078495197739 -0.000611876696162453 0.0
0.43866924088212034 -0.0006280561149490842 0.0
0.4684705694233372 -0.0006306624310357975 0.0
0.48825396607597343 -0.0006365209980162891 0.0
0.4980855259698191 -0.000645937477809289 0.0
0.4980140258845551 -0.0006446219562270275 0.0
0.48804217295900837 -0.0006127507122142973 0.0
0.46812630911206116 -0.0005367122490883222 0.0
0.4382053175168618 -0.00041880302154210185 0.0
0.39824320858394674 -0.00027998692810368546 0.0
0.3482598232487675 -0.00015179478902886163 0.0
0.2883277406654122 -6.058980824010187e-5 0.0
0.21853604176514607 -1.4263830831890608e-5 0.0
0.13894900700186255 -7.130021996861747e-7 0.0
0.049584469867253664 2.9553381272103014e-7 0.0
0.049865794917384076 -1.922930518349743e-5 0.0
0.13957778314864805 -0.00011138440114294037 0.0
0.21932524637732698 -0.00027136073012910307 0.0
0.28913307417334994 -0.0004336785703697884 0.0
0.3489908270841892 -0.0005610342232506122 0.0
0.39885728169639856 -0.0006418754378968761 0.0
0.43869091197239135 -0.0006850537831222984 0.0
0.4684827353595802 -0.0007087196884068569 0.0
0.48826455849044265 -0.0007262323870396445 0.0
0.4980886621388219 -0.0007383763499209019 0.0
0.49799471425451475 -0.0007340187582793255 0.0
0.4879858656698395 -0.0006975421524104268 0.0
0.46802872792034517 -0.0006189044379055184 0.0
0.43807776769733936 -0.0005015977010476376 0.0
0.398109749254303 -0.0003641804726889659 0.0
0.34814649872651604 -0.00023282401437475003 0.0
0.2882500388522347 -0.00012891833549762477 0.0
0.21849357870136998 -5.9983535627896e-5 0.0
0.13893072957852629 -2.0593875344151405e-5 0.0
0.04957913803189472 -3.444335989758248e-6 0.0
0.04992264064603724 -1.8231841847703844e-5 0.0
0.1397091511886878 -0.00010702233411861165 0.0
0.21948570374483334 -0.00026485328947565645 0.0
0.28928267187730544 -0.00043295249263434414 0.0
0.34910538576734035 -0.0005764667431599913 0.0
0.39893230230729154 -0.0006809976959621495 0.0
0.43873635295512897 -0.000749240601093719 0.0
0.46851175390365246 -0.000793229873180319 0.0
0.4882833987831659 -0.0008228924465450661 0.0
0.49809291620958235 -0.0008389750565769511 0.0
0.497972723261285 -0.0008328382552813071 0.0
0.48792662346024746 -0.000792399104408213 0.0
0.46793002354483837 -0.0007105363350270473 0.0
0.43795019020674075 -0.0005915131359036539 0.0
0.3979737960876753 -0.0004517298323965444 0.0
0.3480238039705459 -0.000313206034065575 0.0
0.2881542550933425 -0.00019405020855290138 0.0
0.21842747213552474 -0.000102355698979772 0.0
0.13889090035826684 -3.864194510047728e-5 0.0
0.0495636953487328 -6.743956899281293e-6 0.0
0.04997817589616841 -1.805544842868489e-5 0.0
0.13983945203880985 -0.00010668574687588265 0.0
0.21964983664355694 -0.00026683607444936215 0.0
0.2894439411744532 -0.0004436333878839202 0.0
0.349239449852423 -0.0006038483501122294 0.0
0.3990308583582252 -0.0007310334884193074 0.0
0.4388038726167128 -0.0008230719662963133 0.0
0.4685569181441763 -0.0008868305016820017 0.0
0.48831064848253974 -0.0009290054723910616 0.0
0.4980987926612967 -0.0009499520813938377 0.0
0.4979482411011421 -0.0009429301342406162 0.0
0.4878636699496332 -0.0008987468048832044 0.0
0.46782798601783476 -0.0008126335974458557 0.0
0.4378189597747404 -0.0006893623728595617 0.0
0.39783109506310466 -0.0005435447270348897 0.0
0.34788823497649685 -0.00039413565124857167 0.0
0.28803879118241016 -0.0002572873701208546 0.0
0.2183381282300038 -0.0001423537451957436 0.0
0.13883090805815623 -5.5286197752417454e-5 0.0
0.049539107372290496 -9.692322797073928e-6 0.0
0.05003441880581842 -1.856068103270461e-5 0.0
0.13997265717455257 -0.00010986623910846409 0.0
0.21982139846495244 -0.00027659136920987006 0.0
0.28961900087958103 -0.0004653945861730412 0.0
0.34939332456663236 -0.0006437656280998107 0.0
0.3991522380676612 -0.000793575575030666 0.0
0.4388927598689777 -0.0009088599482687897 0.0
0.4686181079209527 -0.0009921445850037901 0.0
0.4883467797447586 -0.0010471745298972455 0.0
0.49810694961122975 -0.0010736876177399846 0.0
0.49792153492486235 -0.0010663387749089088 0.0
0.48779632015711705 -0.0010182492996027954 0.0
0.46772063227438354 -0.0009265344074532061 0.0
0.43768091355524186 -0.0007963392001728374 0.0
0.3976780286233547 -0.0006409119924117063 0.0
0.34773681574650006 -0.00047710029505207196 0.0
0.28790215748621667 -0.0003201406651336128 0.0
0.21822560405685534 -0.00018114057712312874 0.0
0.13875163345760186 -7.110797420391564e-5 0.0
0.04950602950327862 -1.2427348214906838e-5 0.0
0.05009313551674358 -1.965426588019971e-5 0.0
0.14011243219787747 -0.0001162152539489374 0.0
0.220004189875875 -0.0002936251849780981 0.0
0.2898105303906084 -0.0004980495171280426 0.0
0.34956822350997224 -0.0006967844018407979 0.0
0.3992966532880954 -0.0008700943517749231 0.0
0.43900297939876337 -0.00100881111545311 0.0
0.46869555870581053 -0.0011117858541407485 0.0
0.4883923602258498 -0.0011801023142479852 0.0
0.4981179735104299 -0.0012127457500848377 0.0
0.4978927167738308 -0.0012053572161247722 0.0
0.48772373789921025 -0.0011528856573804198 0.0
0.46760592899637404 -0.0010539622377208197 0.0
0.43753299554875724 -0.0009140640143434184 0.0
0.39751117255352014 -0.000745511127036131 0.0
0.3475666452235891 -0.000563863692774582 0.0
0.28774263356677865 -0.0003842605271687134 0.0
0.2180894273011509 -0.00021993291679425832 0.0
0.13865335972497284 -8.669932526727742e-5 0.0
0.04946477447184862 -1.5081708725548216e-5 0.0
0.05015593854811031 -2.128480531533385e-5 0.0
0.14026226863036761 -0.0001255441681691275 0.0
0.22020209630790363 -0.0003177083114148484 0.0
0.2900216682423864 -0.0005416654161376962 0.0
0.3497660812710143 -0.0007636221172150797 0.0
0.3994650488222326 -0.0009621166424745672 0.0
0.43913502180622843 -0.001125165497658497 0.0
0.468789737002497 -0.0012484471311843687 0.0
0.48844792407326215 -0.001330646019919683 0.0
0.498132234158491 -0.0013699185250257838 0.0
0.4978615894934194 -0.0013625686837794952 0.0
0.48764477869979705 -0.001304978496387609 0.0
0.46748162283535494 -0.001197020099415939 0.0
0.43737205460836875 -0.0010445277872829178 0.0
0.39732706672009677 -0.0008593132275787198 0.0
0.3473746922445667 -0.0006563458403148058 0.0
0.28755814490159726 -0.000451323827506461 0.0
0.21792856269302247 -0.00025990688102199523 0.0
0.13853578550396234 -0.00010260625112852875 0.0
0.049415338849367885 -1.7769170031853708e-5 0.0
0.0502243717889279 -2.343367135127619e-5 0.0
0.1404256154551901 -0.00013780488920092776 0.0
0.2204191711791402 -0.00034887359721225993 0.0
0.2902560173080012 -0.000596613948414056 0.0
0.349989517135314 -0.0008452610696035233 0.0
0.3996590835501141 -0.0010713710179990675 0.0
0.43928993181579656 -0.0012603350764480627 0.0
0.46890140572817013 -0.0014050110415013825 0.0
0.48851404771700685 -0.001501898202650002 0.0
0.4981499539456688 -0.0015482829811144985 0.0
0.4978277056026139 -0.001540883650623559 0.0
0.48755803480802457 -0.0014772059338633682 0.0
0.46734525692658346 -0.0013581685706797486 0.0
0.43719481449689956 -0.001190035840698434 0.0
0.3971221394759873 -0.0009845071701072353 0.0
0.34715770743790747 -0.0007565580376001669 0.0
0.28734620471491934 -0.0005229920326964275 0.0
0.21774140356916297 -0.00030217680731087427 0.0
0.13839805350562187 -0.00011932390943268165 0.0
0.049357437622938774 -2.0586334685785924e-5 0.0
0.05029998221320082 -2.6108733192260948e-5 0.0
0.14060600069547155 -0.00015307168027674722 0.0
0.22065972751409077 -0.0003874010830703667 0.0
0.2905176726985665 -0.0006635863525372905 0.0
0.3502418209129191 -0.0009430082538476442 0.0
0.3998811206197001 -0.001199883418125588 0.0
0.4394693326398893 -0.0014170103760424932 0.0
0.4690316836093151 -0.0015846465398034037 0.0
0.4885914268248826 -0.0016972659047195977 0.0
0.49817128461551974 -0.0017512629065466895 0.0
0.49779043231882303 -0.001743582938247563 0.0
0.48746187772817706 -0.0016726233619010866 0.0
0.46719417600580315 -0.0015402250470398433 0.0
0.4369978298725147 -0.0013531904453758738 0.0
0.3968926222566171 -0.0011234787939939513 0.0
0.34691212839199126 -0.0008665924826823794 0.0
0.28710384952037815 -0.0006009160507249483 0.0
0.21752575782211106 -0.0003478068734954517 0.0
0.13823877499565168 -0.0001373071109894774 0.0
0.04929053251134945 -2.3617331217703405e-5 0.0
0.05038438279570647 -2.934043837934777e-5 0.0
0.14080714870953367 -0.00017153090109799343 0.0
0.22092844077302762 -0.0004338110839971778 0.0
0.29081127246606037 -0.0007436084582247367 0.0
0.35052695625146846 -0.0010585439760013478 0.0
0.4001342132137444 -0.0013500549641518303 0.0
0.43967542374975976 -0.001598252463334756 0.0
0.46918206153202763 -0.0017908997338618683 0.0
0.4886809032139186 -0.0019205508051785775 0.0
0.49819633196866675 -0.001982694373445927 0.0
0.49774896327239504 -0.001974367855487236 0.0
0.4873544461191644 -0.0018946964829403812 0.0
0.4670254799625549 -0.0017463794650291952 0.0
0.4367774023391148 -0.001536894267182135 0.0
0.39663444171028556 -0.0012788128543927363 0.0
0.3466339773282252 -0.0009886319140868362 0.0
0.2868275731806703 -0.0006867529473106115 0.0
0.21727883074476403 -0.0003978294955979632 0.0
0.13805604793672338 -0.00015698346107472693 0.0
0.04921385265787381 -2.6937878040167073e-5 0.0
0.050479310795054265 -3.318037717080906e-5 0.0
0.14103309696241068 -0.0001934777768768775 0.0
0.2212304654999436 -0.0004888675187848255 0.0
0.29114207578474677 -0.0008380640062804884 0.0
0.35084959382220393 -0.0011939751379627475 0.0
0.4004221100398533 -0.0015247418897649302 0.0
0.4399109798625416 -0.0018075873549080984 0.0
0.4693544060360276 -0.0020277895740791804 0.0
0.4887834700359824 -0.0021760356167959643 0.0
0.49822515495560843 -0.002246898559772541 0.0
0.49770230262876697 -0.002237416427277014 0.0
0.4872336070283461 -0.002147339981541924 0.0
0.4668359562765679 -0.0019802170482063905 0.0
0.4365294851822841 -0.0017443628215443054 0.0
0.3963431111334952 -0.001453303559221668 0.0
0.34631876498183267 -0.001124964493765269 0.0
0.28651326608731714 -0.0007821862719077612 0.0
0.21699720620758353 -0.0004532640275619902 0.0
0.13784746684817883 -0.00017876401758780904 0.0
0.04912640739560773 -3.061843485785348e-5 0.0
0.05058668575474568 -3.77013243005732e-5 0.0
0.1412883179841978 -0.0002193197306664351 0.0
0.22157156699219413 -0.0005535926903468478 0.0
0.2915160663646627 -0.0009487310587661594 0.0
0.3512151729199624 -0.0013518983592999824 0.0
0.4007492846026426 -0.0017273434823989707 0.0
0.4401793622260321 -0.0020491080646664627 0.0
0.4695509636136784 -0.0022999108212732352 0.0
0.4889002701903992 -0.002468578749972932 0.0
0.49825775378383474 -0.00254876147865242 0.0
0.4976492366299496 -0.002537446063139061 0.0
0.4870969048466754 -0.0024349623384794287 0.0
0.46662200354368677 -0.0022457473426112694 0.0
0.43624958602098557 -0.0019791433325688067 0.0
0.3960136266310679 -0.001649970173250041 0.0
0.34596140064516795 -0.00127800157060953 0.0
0.28615615649099274 -0.0008889451622652641 0.0
0.21667682330043375 -0.0005151339343591785 0.0
0.13761012419290974 -0.00020305382463010768 0.0
0.049026993095619364 -3.472676603827909e-5 0.0
0.050708670739920275 -4.299884821364139e-5 0.0
0.14157785116986835 -0.0002495868044159807 0.0
0.221958271299431 -0.0006292955869296401 0.0
0.2919400803685711 -0.0010778342272583692 0.0
0.3516299896067275 -0.0015354787562458926 0.0
0.4011209839695309 -0.0019619033599597565 0.0
0.44048453991226155 -0.002327589068825093 0.0
0.46977436355222896 -0.0026125491328072557 0.0
0.4890325854701679 -0.0028037193428467138 0.0
0.498294043604376 -0.002893822975604149 0.0
0.49758828886065676 -0.0028797829745513498 0.0
0.4869414956383278 -0.0027625157533790554 0.0
0.46637954457152325 -0.002547437409893957 0.0
0.43593266444911877 -0.0022451368647609746 0.0
0.39564036282177745 -0.001872075158308104 0.0
0.34555610347025617 -0.0014502955583613787 0.0
0.2857507502521211 -0.0010088225063797625 0.0
0.2163129471502484 -0.0005844806805979917 0.0
0.137340603927524 -0.00023025807582411798 0.0
0.04891419515120131 -3.9329381602186186e-5 0.0
0.050847740756071215 -4.9194875312909465e-5 0.0
0.14190745225587664 -0.00028494986212672765 0.0
0.22239803911279363 -0.0007176160366638389 0.0
0.2924219610841827 -0.001228118798461498 0.0
0.35210130842258786 -0.0017485523903785606 0.0
0.40154329396664634 -0.002233233590412541 0.0
0.44083111552055126 -0.0026486201749148417 0.0
0.47002761483783956 -0.00297181228373755 0.0
0.4891818105456504 -0.0031877955225881227 0.0
0.4983338089820847 -0.0032883749639613675 0.0